
     Program PWSCF v.7.3.1 starts on 25Sep2025 at 10: 5:22 

     This program is part of the open-source Quantum ESPRESSO suite
     for quantum simulation of materials; please cite
         "P. Giannozzi et al., J. Phys.:Condens. Matter 21 395502 (2009);
         "P. Giannozzi et al., J. Phys.:Condens. Matter 29 465901 (2017);
         "P. Giannozzi et al., J. Chem. Phys. 152 154105 (2020);
          URL http://www.quantum-espresso.org", 
     in publications or presentations arising from this work. More details at
     http://www.quantum-espresso.org/quote

     Parallel version (MPI & OpenMP), running on     320 processor cores
     Number of MPI processes:               320
     Threads/MPI process:                     1

     MPI processes distributed on     5 nodes
     470812 MiB available memory on the printing compute node when the environment starts
 
     Waiting for input...
     Reading input from standard input
Warning: card &CELL ignored
Warning: card   PRESS = 0.0, ignored
Warning: card / ignored

     Current dimensions of program PWSCF are:
     Max number of different atomic species (ntypx) = 10
     Max number of k-points (npk) =  40000
     Max angular momentum in pseudopotentials (lmaxx) =  4

     IMPORTANT: XC functional enforced from input :
     Exchange-correlation= PBE
                           (   1   4   3   4   0   0   0)
     Any further DFT definition will be discarded
     Please, verify this is what you really want

 
     K-points division:     npool     =       4
     R & G space division:  proc/nbgrp/npool/nimage =      80
     Subspace diagonalization in iterative solution of the eigenvalue problem:
     one sub-group per band group will be used
     ELPA distributed-memory algorithm (size of sub-group:  2*  2 procs)

 
     Parallelization info
     --------------------
     sticks:   dense  smooth     PW     G-vecs:    dense   smooth      PW
     Min         144      72     19                27164     9601    1323
     Max         145      73     20                27179     9610    1334
     Sum       11557    5773   1531              2173495   768463  106117
 
     Using Slab Decomposition
 


     bravais-lattice index     =            4
     lattice parameter (alat)  =      22.8869  a.u.
     unit-cell volume          =   22488.0312 (a.u.)^3
     number of atoms/cell      =           40
     number of atomic types    =            4
     number of electrons       =       312.00
     number of Kohn-Sham states=          187
     kinetic-energy cutoff     =      40.0000  Ry
     charge density cutoff     =     320.0000  Ry
     scf convergence threshold =      1.0E-06
     mixing beta               =       0.1200
     number of iterations used =            8  plain     mixing
     energy convergence thresh.=      1.0E-07
     force convergence thresh. =      2.0E-06
     Exchange-correlation= PBE
                           (   1   4   3   4   0   0   0)
     nstep                     =          200


     celldm(1)=  22.886890  celldm(2)=   0.000000  celldm(3)=   2.166010
     celldm(4)=   0.000000  celldm(5)=   0.000000  celldm(6)=   0.000000

     crystal axes: (cart. coord. in units of alat)
               a(1) = (   1.000000   0.000000   0.000000 )  
               a(2) = (  -0.500000   0.866025   0.000000 )  
               a(3) = (   0.000000   0.000000   2.166010 )  

     reciprocal axes: (cart. coord. in units 2 pi/alat)
               b(1) = (  1.000000  0.577350  0.000000 )  
               b(2) = (  0.000000  1.154701  0.000000 )  
               b(3) = (  0.000000  0.000000  0.461678 )  


     PseudoPot. # 1 for Cu read from file:
     ./cu_pbe_v1.2.uspp.F.UPF
     MD5 check sum: 6e991ff952a84172a2a52a1c1e996048
     Pseudo is Ultrasoft + core correction, Zval = 19.0
     Generated by new atomic code, or converted to UPF format
     Using radial grid of  867 points,  6 beta functions with: 
                l(1) =   0
                l(2) =   0
                l(3) =   1
                l(4) =   1
                l(5) =   2
                l(6) =   2
     Q(r) pseudized with  8 coefficients,  rinner =    1.150   1.150   1.150
                                                       1.150   1.150

     PseudoPot. # 2 for In read from file:
     ./in_pbe_v1.4.uspp.F.UPF
     MD5 check sum: 90777abd96fbb83f2e67db2a40c566b9
     Pseudo is Ultrasoft + core correction, Zval = 13.0
     Generated by new atomic code, or converted to UPF format
     Using radial grid of  889 points,  6 beta functions with: 
                l(1) =   0
                l(2) =   0
                l(3) =   1
                l(4) =   1
                l(5) =   2
                l(6) =   2
     Q(r) pseudized with  6 coefficients,  rinner =    1.400   1.400   1.400
                                                       1.400   1.400

     PseudoPot. # 3 for P  read from file:
     ./p_pbe_v1.5.uspp.F.UPF
     MD5 check sum: eb82b2c351da08c5f5f8709277dc7ee5
     Pseudo is Ultrasoft + core correction, Zval =  5.0
     Generated by new atomic code, or converted to UPF format
     Using radial grid of  903 points,  6 beta functions with: 
                l(1) =   0
                l(2) =   0
                l(3) =   1
                l(4) =   1
                l(5) =   2
                l(6) =   2
     Q(r) pseudized with  8 coefficients,  rinner =    1.300   1.300   1.300
                                                       1.300   1.300

     PseudoPot. # 4 for S  read from file:
     ./s_pbe_v1.4.uspp.F.UPF
     MD5 check sum: 88d86576ff6df21479756cfb9bdac1df
     Pseudo is Ultrasoft + core correction, Zval =  6.0
     Generated by new atomic code, or converted to UPF format
     Using radial grid of  907 points,  6 beta functions with: 
                l(1) =   0
                l(2) =   0
                l(3) =   1
                l(4) =   1
                l(5) =   2
                l(6) =   2
     Q(r) pseudized with  8 coefficients,  rinner =    1.300   1.300   1.300
                                                       1.300   1.300

     atomic species   valence    mass     pseudopotential
     Cu               19.00    63.54600     Cu( 1.00)
     In               13.00   114.81800     In( 1.00)
     P                 5.00    30.97400     P ( 1.00)
     S                 6.00    32.06500     S ( 1.00)

     No symmetry found



   Cartesian axes

     site n.     atom                  positions (alat units)
         1        Cu     tau(   1) = (   0.2498669   0.1443829   1.1979201  )
         2        Cu     tau(   2) = (  -0.0000672   0.5773737   1.1979451  )
         3        Cu     tau(   3) = (   0.7499645   0.1443517   1.1979405  )
         4        Cu     tau(   4) = (   0.4999464   0.5774253   1.1979168  )
         5        In     tau(   5) = (   0.9999195   0.0000474   1.0672467  )
         6        In     tau(   6) = (   0.7499100   0.4330610   1.0672222  )
         7        In     tau(   7) = (   0.4999236   0.0000481   1.0672196  )
         8        In     tau(   8) = (   0.2499268   0.4330513   1.0672250  )
         9        P      tau(   9) = (  -0.0000812   0.2887230   0.9908079  )
        10        P      tau(  10) = (  -0.2500749   0.7217382   0.9908019  )
        11        P      tau(  11) = (   0.4999254   0.2887220   0.9907892  )
        12        P      tau(  12) = (   0.2499238   0.7217303   0.9908072  )
        13        P      tau(  13) = (  -0.0000852   0.2887228   1.1767489  )
        14        P      tau(  14) = (  -0.2500574   0.7217354   1.1767417  )
        15        P      tau(  15) = (   0.4999308   0.2887105   1.1767269  )
        16        P      tau(  16) = (   0.2499217   0.7217100   1.1767469  )
        17        S      tau(  17) = (  -0.0887855   0.1535941   0.9472635  )
        18        S      tau(  18) = (  -0.3387887   0.5866154   0.9472560  )
        19        S      tau(  19) = (   0.4112188   0.1535962   0.9472403  )
        20        S      tau(  20) = (   0.1612157   0.5866057   0.9472551  )
        21        S      tau(  21) = (   0.4113012   0.7124853   0.9472592  )
        22        S      tau(  22) = (   0.6613013   0.2794699   0.9472374  )
        23        S      tau(  23) = (  -0.0887003   0.7124780   0.9472458  )
        24        S      tau(  24) = (   0.1612965   0.2794573   0.9472623  )
        25        S      tau(  25) = (  -0.3227515   0.8661247   0.9472677  )
        26        S      tau(  26) = (  -0.0727468   0.4331127   0.9472663  )
        27        S      tau(  27) = (   0.1772616   0.8661242   0.9472720  )
        28        S      tau(  28) = (   0.4272566   0.4331136   0.9472575  )
        29        S      tau(  29) = (   0.3419177   0.8551457   1.2285432  )
        30        S      tau(  30) = (   0.5918996   0.4221750   1.2285003  )
        31        S      tau(  31) = (  -0.1580866   0.8552003   1.2284991  )
        32        S      tau(  32) = (   0.0919189   0.4221568   1.2285264  )
        33        S      tau(  33) = (   0.0694721   0.1423279   1.2285335  )
        34        S      tau(  34) = (  -0.1804865   0.5753421   1.2285074  )
        35        S      tau(  35) = (   0.5695352   0.1423306   1.2284894  )
        36        S      tau(  36) = (   0.3195213   0.5753261   1.2284989  )
        37        S      tau(  37) = (  -0.4116159   0.7346785   1.2285312  )
        38        S      tau(  38) = (  -0.1616497   0.3016561   1.2285114  )
        39        S      tau(  39) = (   0.0883579   0.7346516   1.2285127  )
        40        S      tau(  40) = (   0.3383638   0.3016275   1.2284994  )

     -------------------------------------------------
     Parameters for Dispersion (Grimme-D2) Correction:
     -------------------------------------------------
       atom      VdW radius       C_6     

        Cu         2.952        374.666
        In         3.160       1294.678
        P          3.222        271.980
        S          3.180        193.230

     number of k points=    24  Gaussian smearing, width (Ry)=  0.0200
                       cart. coord. in units 2pi/alat
        k(    1) = (   0.1250000   0.2165064  -0.2308392), wk =   0.0833333
        k(    2) = (   0.1250000   0.5051815  -0.2308392), wk =   0.0833333
        k(    3) = (   0.1250000  -0.3608439  -0.2308392), wk =   0.0833333
        k(    4) = (   0.1250000  -0.0721688  -0.2308392), wk =   0.0833333
        k(    5) = (   0.3750000   0.6495191  -0.2308392), wk =   0.0833333
        k(    6) = (   0.3750000  -0.2165064  -0.2308392), wk =   0.0833333
        k(    7) = (  -0.1250000   0.2165064   0.2308392), wk =   0.0833333
        k(    8) = (   0.2500000   0.0000000  -0.2308392), wk =   0.0833333
        k(    9) = (  -0.1250000   0.5051815   0.2308392), wk =   0.0833333
        k(   10) = (  -0.3750000   0.3608439  -0.2308392), wk =   0.0833333
        k(   11) = (   0.5000000   0.1443376  -0.2308392), wk =   0.0833333
        k(   12) = (  -0.3750000  -0.3608439   0.2308392), wk =   0.0833333
        k(   13) = (   0.5000000  -0.1443376   0.2308392), wk =   0.0833333
        k(   14) = (  -0.1250000  -0.3608439   0.2308392), wk =   0.0833333
        k(   15) = (   0.3750000  -0.0721688  -0.2308392), wk =   0.0833333
        k(   16) = (  -0.2500000  -0.2886751  -0.2308392), wk =   0.0833333
        k(   17) = (   0.3750000   0.0721688   0.2308392), wk =   0.0833333
        k(   18) = (  -0.2500000   0.2886751   0.2308392), wk =   0.0833333
        k(   19) = (  -0.1250000  -0.0721688   0.2308392), wk =   0.0833333
        k(   20) = (   0.0000000  -0.1443376  -0.2308392), wk =   0.0833333
        k(   21) = (  -0.3750000   0.6495191   0.2308392), wk =   0.0833333
        k(   22) = (   0.7500000   0.0000000  -0.2308392), wk =   0.0833333
        k(   23) = (  -0.3750000  -0.2165064   0.2308392), wk =   0.0833333
        k(   24) = (   0.0000000  -0.4330127  -0.2308392), wk =   0.0833333

     Dense  grid:  2173495 G-vectors     FFT dimensions: ( 135, 135, 288)

     Smooth grid:   768463 G-vectors     FFT dimensions: (  96,  96, 200)

     Estimated max dynamical RAM per process >      88.38 MB

     Estimated total dynamical RAM >      26.06 GB

     Initial potential from superposition of free atoms

     starting charge     301.9978, renormalised to     312.0000

     negative rho (up, down):  5.533E-03 0.000E+00
     Starting wfcs are  216 randomized atomic wfcs

     total cpu time spent up to now is        4.5 secs

     per-process dynamical memory:    82.9 Mb

     Self-consistent Calculation

     iteration #  1     ecut=    40.00 Ry     beta= 0.12
     Davidson diagonalization with overlap
     ethr =  1.00E-02,  avg # of iterations =  3.0

     negative rho (up, down):  4.355E-03 0.000E+00

     total cpu time spent up to now is       12.2 secs

     total energy              =   -2853.13130095 Ry
     estimated scf accuracy    <       3.66614926 Ry

     iteration #  2     ecut=    40.00 Ry     beta= 0.12
     Davidson diagonalization with overlap
     ethr =  1.18E-03,  avg # of iterations =  3.1

     negative rho (up, down):  4.352E-03 0.000E+00

     total cpu time spent up to now is       17.5 secs

     total energy              =   -2852.64352190 Ry
     estimated scf accuracy    <       2.25818673 Ry

     iteration #  3     ecut=    40.00 Ry     beta= 0.12
     Davidson diagonalization with overlap
     ethr =  7.24E-04,  avg # of iterations =  6.5

     negative rho (up, down):  4.826E-03 0.000E+00

     total cpu time spent up to now is       23.5 secs

     total energy              =   -2852.77757988 Ry
     estimated scf accuracy    <       0.44403950 Ry

     iteration #  4     ecut=    40.00 Ry     beta= 0.12
     Davidson diagonalization with overlap
     c_bands:  1 eigenvalues not converged
     ethr =  1.42E-04,  avg # of iterations = 12.8

     negative rho (up, down):  6.871E-03 0.000E+00

     total cpu time spent up to now is       32.0 secs

     total energy              =   -2852.76699964 Ry
     estimated scf accuracy    <       0.22770047 Ry

     iteration #  5     ecut=    40.00 Ry     beta= 0.12
     Davidson diagonalization with overlap
     ethr =  7.30E-05,  avg # of iterations =  6.9

     negative rho (up, down):  5.790E-03 0.000E+00

     total cpu time spent up to now is       40.3 secs

     total energy              =   -2852.75024048 Ry
     estimated scf accuracy    <       0.48569690 Ry

     iteration #  6     ecut=    40.00 Ry     beta= 0.12
     Davidson diagonalization with overlap
     ethr =  7.30E-05,  avg # of iterations =  4.0

     negative rho (up, down):  8.268E-03 0.000E+00

     total cpu time spent up to now is       46.2 secs

     total energy              =   -2852.81218321 Ry
     estimated scf accuracy    <       0.03545431 Ry

     iteration #  7     ecut=    40.00 Ry     beta= 0.12
     Davidson diagonalization with overlap
     c_bands:  1 eigenvalues not converged
     ethr =  1.14E-05,  avg # of iterations = 10.8

     negative rho (up, down):  7.682E-03 0.000E+00

     total cpu time spent up to now is       53.0 secs

     total energy              =   -2852.81142497 Ry
     estimated scf accuracy    <       0.00929569 Ry

     iteration #  8     ecut=    40.00 Ry     beta= 0.12
     Davidson diagonalization with overlap
     ethr =  2.98E-06,  avg # of iterations =  9.9

     negative rho (up, down):  7.048E-03 0.000E+00

     total cpu time spent up to now is       61.1 secs

     total energy              =   -2852.80879959 Ry
     estimated scf accuracy    <       0.03591718 Ry

     iteration #  9     ecut=    40.00 Ry     beta= 0.12
     Davidson diagonalization with overlap
     ethr =  2.98E-06,  avg # of iterations =  4.9

     negative rho (up, down):  6.528E-03 0.000E+00

     total cpu time spent up to now is       67.7 secs

     total energy              =   -2852.81321549 Ry
     estimated scf accuracy    <       0.00101901 Ry

     iteration # 10     ecut=    40.00 Ry     beta= 0.12
     Davidson diagonalization with overlap
     ethr =  3.27E-07,  avg # of iterations =  6.0

     negative rho (up, down):  5.938E-03 0.000E+00

     total cpu time spent up to now is       74.2 secs

     total energy              =   -2852.81341147 Ry
     estimated scf accuracy    <       0.00023571 Ry

     iteration # 11     ecut=    40.00 Ry     beta= 0.12
     Davidson diagonalization with overlap
     ethr =  7.55E-08,  avg # of iterations =  5.7

     negative rho (up, down):  5.323E-03 0.000E+00

     total cpu time spent up to now is       80.9 secs

     total energy              =   -2852.81341688 Ry
     estimated scf accuracy    <       0.00032661 Ry

     iteration # 12     ecut=    40.00 Ry     beta= 0.12
     Davidson diagonalization with overlap
     ethr =  7.55E-08,  avg # of iterations =  3.0

     negative rho (up, down):  4.827E-03 0.000E+00

     total cpu time spent up to now is       86.8 secs

     total energy              =   -2852.81346136 Ry
     estimated scf accuracy    <       0.00010267 Ry

     iteration # 13     ecut=    40.00 Ry     beta= 0.12
     Davidson diagonalization with overlap
     ethr =  3.29E-08,  avg # of iterations =  2.0

     negative rho (up, down):  4.375E-03 0.000E+00

     total cpu time spent up to now is       92.4 secs

     total energy              =   -2852.81349112 Ry
     estimated scf accuracy    <       0.00000731 Ry

     iteration # 14     ecut=    40.00 Ry     beta= 0.12
     Davidson diagonalization with overlap
     ethr =  2.34E-09,  avg # of iterations =  2.0

     negative rho (up, down):  4.022E-03 0.000E+00

     total cpu time spent up to now is       97.8 secs

     total energy              =   -2852.81349856 Ry
     estimated scf accuracy    <       0.00000328 Ry

     iteration # 15     ecut=    40.00 Ry     beta= 0.12
     Davidson diagonalization with overlap
     ethr =  1.05E-09,  avg # of iterations =  4.0

     negative rho (up, down):  3.735E-03 0.000E+00

     total cpu time spent up to now is      104.6 secs

     total energy              =   -2852.81350302 Ry
     estimated scf accuracy    <       0.00000655 Ry

     iteration # 16     ecut=    40.00 Ry     beta= 0.12
     Davidson diagonalization with overlap
     ethr =  1.05E-09,  avg # of iterations =  4.0

     negative rho (up, down):  3.041E-03 0.000E+00

     total cpu time spent up to now is      110.9 secs

     End of self-consistent calculation

          k = 0.1250 0.2165-0.2308 ( 96096 PWs)   bands (ev):

  -114.1674-114.1673-114.1672-114.1672 -71.6397 -71.6397 -71.6397 -71.6397
   -71.6396 -71.6396 -71.6395 -71.6395 -71.4672 -71.4672 -71.4671 -71.4671
   -18.7048 -18.5692 -18.5691 -18.5502 -17.7472 -17.7470 -17.7440 -17.7161
   -17.3198 -17.2953 -17.2875 -17.2870 -17.2866 -17.0710 -17.0701 -17.0481
   -17.0307 -17.0305 -17.0303 -17.0300 -17.0299 -17.0188 -17.0187 -17.0168
   -16.9989 -16.9354 -16.9350 -16.9004 -16.2252 -16.1827 -16.1797 -15.8357
   -15.7876 -15.7812 -15.6887 -15.6415 -15.4994 -15.4607 -15.4547 -15.1672
   -15.1439 -15.1418 -15.0787 -15.0402 -12.9344 -12.4021 -12.4020 -12.3287
   -11.1708 -10.7264 -10.7262 -10.6423  -9.5683  -9.3321  -9.3303  -9.2652
    -8.7031  -8.6812  -8.6219  -8.6192  -8.5026  -8.3884  -8.3404  -8.3135
    -8.1139  -8.0821  -8.0774  -8.0452  -7.8823  -7.5059  -7.4164  -7.3981
    -7.1773  -7.1578  -7.1392  -7.1305  -6.3956  -6.3919  -6.3767  -6.1802
    -6.1637  -6.1389  -6.0661  -5.8639  -5.8486  -5.8389  -5.8377  -5.7829
    -5.7213  -5.6484  -5.6449  -5.6376  -5.4526  -5.4346  -5.4315  -5.4086
    -5.4048  -5.1841  -5.1640  -5.1436  -5.0087  -5.0039  -4.9995  -4.8301
    -4.7424  -4.7270  -4.7003  -4.6716  -4.6318  -4.6023  -4.5942  -4.5851
    -4.2695  -4.2544  -4.2466  -4.0887  -4.0813  -4.0543  -4.0482  -3.9538
    -3.8783  -3.8756  -3.8689  -3.8366  -3.8320  -3.7803  -3.7802  -3.7320
    -3.7225  -3.6759  -3.6717  -3.6228  -3.4301  -3.3866  -3.3763  -3.2712
    -3.2695  -3.1570  -3.1456  -3.0248  -1.0781  -0.8527  -0.7653  -0.7628
    -0.1569  -0.0711   0.0323   0.0557   0.1185   0.2227   0.2357   0.3009
     0.4012   0.4039   0.5054   0.5477   0.5585   0.5638   0.5798   0.8686
     0.9157   0.9911   1.0246   1.0900   1.3161   1.3764   1.3878   1.7193
     1.8290   1.8325   1.8454

          k = 0.1250 0.5052-0.2308 ( 96082 PWs)   bands (ev):

  -114.1674-114.1673-114.1672-114.1672 -71.6397 -71.6397 -71.6397 -71.6397
   -71.6396 -71.6396 -71.6395 -71.6395 -71.4672 -71.4672 -71.4671 -71.4671
   -18.6551 -18.6233 -18.5772 -18.5439 -17.7410 -17.7402 -17.7352 -17.7333
   -17.3217 -17.3114 -17.3106 -17.3047 -17.1932 -17.1390 -17.0668 -17.0355
   -17.0298 -17.0294 -17.0288 -17.0286 -17.0274 -17.0248 -17.0209 -17.0175
   -16.9906 -16.9798 -16.9394 -16.8726 -16.1903 -16.1097 -15.9912 -15.9267
   -15.8745 -15.8374 -15.7325 -15.7023 -15.4848 -15.4156 -15.3088 -15.2181
   -15.1998 -15.1533 -15.1031 -15.0810 -12.7173 -12.5934 -12.4149 -12.2852
   -11.0085 -10.9038 -10.7249 -10.5746  -9.4782  -9.4195  -9.2895  -9.1421
    -8.7720  -8.7709  -8.7378  -8.6785  -8.4140  -8.3821  -8.3316  -8.3238
    -8.3128  -8.2281  -8.1638  -8.1634  -7.6709  -7.5913  -7.5444  -7.4313
    -7.0710  -7.0379  -6.9528  -6.9298  -6.3208  -6.2753  -6.2024  -6.1949
    -6.1681  -6.0988  -6.0535  -5.9917  -5.8401  -5.8267  -5.7821  -5.7674
    -5.7044  -5.6564  -5.6505  -5.6431  -5.5192  -5.5177  -5.4098  -5.4035
    -5.3808  -5.2873  -5.2723  -5.2716  -4.9870  -4.9692  -4.9513  -4.8829
    -4.7026  -4.6729  -4.6514  -4.6259  -4.5541  -4.5412  -4.5159  -4.5155
    -4.3072  -4.3027  -4.2906  -4.2515  -4.0121  -3.9837  -3.9720  -3.9693
    -3.9296  -3.8770  -3.8537  -3.8440  -3.8434  -3.8268  -3.7806  -3.7125
    -3.6835  -3.6638  -3.6548  -3.5746  -3.5044  -3.4842  -3.4220  -3.4183
    -3.3478  -3.2619  -3.1979  -3.0822  -0.9112  -0.8119  -0.8024  -0.7357
    -0.2325  -0.0745   0.0026   0.0332   0.0492   0.2740   0.3218   0.4279
     0.4866   0.4887   0.4914   0.5263   0.5440   0.6195   0.7160   0.7860
     0.8245   0.9394   0.9973   1.0659   1.2555   1.4725   1.5617   1.6318
     1.7688   1.7810   1.8155

          k = 0.1250-0.3608-0.2308 ( 96078 PWs)   bands (ev):

  -114.1674-114.1673-114.1672-114.1672 -71.6397 -71.6397 -71.6397 -71.6397
   -71.6396 -71.6396 -71.6395 -71.6395 -71.4672 -71.4672 -71.4671 -71.4671
   -18.6836 -18.5930 -18.5744 -18.5460 -17.7447 -17.7435 -17.7389 -17.7246
   -17.3168 -17.3111 -17.3015 -17.2951 -17.2453 -17.0970 -17.0681 -17.0396
   -17.0302 -17.0299 -17.0294 -17.0293 -17.0292 -17.0216 -17.0200 -17.0171
   -16.9961 -16.9606 -16.9380 -16.8837 -16.2072 -16.1443 -16.0953 -15.8898
   -15.8055 -15.7703 -15.7679 -15.6672 -15.4908 -15.4377 -15.3862 -15.1868
   -15.1458 -15.1411 -15.1280 -15.0568 -12.8376 -12.4835 -12.4114 -12.3015
   -11.1017 -10.8044 -10.7274 -10.6009  -9.5304  -9.3681  -9.3079  -9.2002
    -8.7551  -8.7400  -8.6835  -8.6102  -8.4655  -8.4429  -8.3414  -8.3097
    -8.2085  -8.1571  -8.1236  -8.1143  -7.7906  -7.5637  -7.4509  -7.4141
    -7.1169  -7.0949  -7.0170  -7.0147  -6.3540  -6.3147  -6.3067  -6.2021
    -6.1365  -6.1352  -6.0520  -5.9023  -5.8691  -5.8187  -5.8174  -5.7754
    -5.6925  -5.6640  -5.6525  -5.6479  -5.4846  -5.4640  -5.4204  -5.4191
    -5.4146  -5.2375  -5.2275  -5.1945  -4.9977  -4.9862  -4.9844  -4.8600
    -4.7272  -4.7239  -4.6494  -4.6359  -4.5868  -4.5665  -4.5614  -4.5398
    -4.2765  -4.2577  -4.2440  -4.1678  -4.0536  -4.0412  -3.9831  -3.9561
    -3.9176  -3.9074  -3.8540  -3.8367  -3.8341  -3.7973  -3.7699  -3.7605
    -3.6894  -3.6879  -3.6543  -3.6132  -3.4799  -3.4160  -3.3878  -3.3387
    -3.3226  -3.2802  -3.1073  -3.1025  -0.9247  -0.8938  -0.7839  -0.7300
    -0.1688  -0.0624  -0.0072   0.0423   0.0687   0.2788   0.3087   0.3628
     0.4322   0.4977   0.5057   0.5190   0.5503   0.5765   0.5880   0.8131
     0.9023   0.9411   1.0363   1.0551   1.2948   1.4066   1.4625   1.6805
     1.7681   1.7706   1.7958

          k = 0.1250-0.0722-0.2308 ( 96030 PWs)   bands (ev):

  -114.1674-114.1673-114.1672-114.1672 -71.6397 -71.6397 -71.6397 -71.6397
   -71.6396 -71.6396 -71.6395 -71.6395 -71.4672 -71.4672 -71.4671 -71.4671
   -18.7161 -18.5627 -18.5561 -18.5559 -17.7491 -17.7481 -17.7480 -17.7105
   -17.3212 -17.3099 -17.2819 -17.2815 -17.2784 -17.0681 -17.0595 -17.0592
   -17.0309 -17.0308 -17.0306 -17.0305 -17.0304 -17.0176 -17.0170 -17.0169
   -17.0001 -16.9286 -16.9170 -16.9168 -16.2284 -16.2273 -16.2124 -15.7951
   -15.7924 -15.7760 -15.6441 -15.6276 -15.4982 -15.4957 -15.4816 -15.1518
   -15.1511 -15.1433 -15.0443 -15.0312 -12.9888 -12.3845 -12.3588 -12.3588
   -11.2074 -10.7130 -10.6837 -10.6836  -9.5880  -9.3356  -9.3141  -9.3133
    -8.6573  -8.6414  -8.6293  -8.5772  -8.5361  -8.3372  -8.3231  -8.3142
    -8.0541  -8.0515  -8.0397  -7.9914  -7.9313  -7.4322  -7.4239  -7.3896
    -7.2327  -7.2280  -7.2206  -7.2077  -6.4272  -6.4245  -6.4223  -6.1699
    -6.1606  -6.1548  -6.0923  -5.8612  -5.8555  -5.8517  -5.8112  -5.7733
    -5.7461  -5.6401  -5.6400  -5.6379  -5.4360  -5.4264  -5.4207  -5.3992
    -5.3850  -5.1475  -5.1399  -5.1312  -5.0009  -4.9947  -4.9946  -4.8003
    -4.7391  -4.7293  -4.7205  -4.7110  -4.6534  -4.6442  -4.6388  -4.6208
    -4.2736  -4.2687  -4.2651  -4.1090  -4.0995  -4.0976  -4.0048  -3.9447
    -3.9130  -3.8623  -3.8462  -3.8423  -3.7921  -3.7883  -3.7878  -3.7237
    -3.7098  -3.7034  -3.6291  -3.5848  -3.3914  -3.3866  -3.3737  -3.2416
    -3.1958  -3.1948  -3.0344  -2.9836  -1.1935  -0.8050  -0.8037  -0.7691
    -0.2328   0.0149   0.0250   0.0762   0.1256   0.1299   0.1465   0.3475
     0.3505   0.3828   0.5450   0.5486   0.5644   0.5701   0.5776   0.8605
     0.9933   1.0074   1.0291   1.0980   1.3407   1.3443   1.3670   1.7571
     1.8798   1.9052   1.9057

          k = 0.3750 0.6495-0.2308 ( 96124 PWs)   bands (ev):

  -114.1674-114.1673-114.1672-114.1672 -71.6397 -71.6397 -71.6397 -71.6397
   -71.6396 -71.6396 -71.6395 -71.6395 -71.4672 -71.4672 -71.4671 -71.4671
   -18.6305 -18.6304 -18.6031 -18.5367 -17.7406 -17.7380 -17.7379 -17.7319
   -17.3283 -17.3109 -17.3106 -17.3105 -17.1474 -17.1469 -17.1009 -17.0302
   -17.0293 -17.0293 -17.0288 -17.0288 -17.0257 -17.0257 -17.0235 -17.0168
   -16.9827 -16.9826 -16.9668 -16.8512 -16.1954 -16.0348 -15.9646 -15.9543
   -15.9523 -15.7888 -15.7425 -15.7391 -15.4916 -15.3554 -15.2879 -15.2846
   -15.2166 -15.1258 -15.1012 -15.0993 -12.6179 -12.6178 -12.5119 -12.2539
   -10.9229 -10.9227 -10.8232 -10.5332  -9.4257  -9.4253  -9.3588  -9.0782
    -8.7962  -8.7808  -8.7749  -8.5964  -8.5131  -8.3770  -8.3272  -8.3158
    -8.2842  -8.2425  -8.2110  -8.2085  -7.6582  -7.5609  -7.5597  -7.4607
    -7.0545  -6.9797  -6.9355  -6.9220  -6.2614  -6.2287  -6.1929  -6.1730
    -6.1724  -6.1186  -6.0658  -6.0512  -5.8470  -5.7934  -5.7817  -5.7643
    -5.7293  -5.6326  -5.6286  -5.6188  -5.5228  -5.5044  -5.4726  -5.3760
    -5.3583  -5.3481  -5.3240  -5.3056  -4.9891  -4.9319  -4.9080  -4.8965
    -4.7034  -4.6799  -4.6644  -4.5842  -4.5365  -4.5239  -4.5150  -4.5071
    -4.3223  -4.3164  -4.3139  -4.2768  -4.0080  -3.9943  -3.9901  -3.9761
    -3.9055  -3.8964  -3.8835  -3.8248  -3.8201  -3.8023  -3.7932  -3.6969
    -3.6715  -3.6540  -3.6244  -3.5948  -3.5467  -3.5381  -3.4713  -3.3893
    -3.3025  -3.2757  -3.2487  -3.0252  -0.9377  -0.7746  -0.7680  -0.7667
    -0.3045  -0.0429  -0.0190   0.0055   0.0128   0.2893   0.4102   0.4550
     0.4750   0.4754   0.5047   0.5379   0.5625   0.6292   0.6500   0.7523
     0.7852   0.9995   1.0231   1.0511   1.1892   1.6160   1.6641   1.6768
     1.7437   1.7597   1.7634

          k = 0.3750-0.2165-0.2308 ( 96096 PWs)   bands (ev):

  -114.1674-114.1673-114.1672-114.1672 -71.6397 -71.6397 -71.6397 -71.6397
   -71.6396 -71.6396 -71.6395 -71.6395 -71.4672 -71.4672 -71.4671 -71.4671
   -18.6737 -18.6102 -18.5572 -18.5570 -17.7431 -17.7400 -17.7398 -17.7281
   -17.3140 -17.3114 -17.3108 -17.2973 -17.2277 -17.1224 -17.0480 -17.0474
   -17.0301 -17.0295 -17.0290 -17.0290 -17.0286 -17.0234 -17.0186 -17.0185
   -16.9945 -16.9732 -16.9064 -16.9058 -16.1749 -16.1708 -16.0431 -15.8732
   -15.8664 -15.8100 -15.7397 -15.6763 -15.4683 -15.4629 -15.3432 -15.1752
   -15.1731 -15.1676 -15.1128 -15.0659 -12.7949 -12.5469 -12.3413 -12.3412
   -11.0699 -10.8645 -10.6455 -10.6453  -9.5132  -9.4028  -9.2327  -9.2286
    -8.7555  -8.7323  -8.7030  -8.6985  -8.4237  -8.3895  -8.3402  -8.3381
    -8.2294  -8.2183  -8.1283  -8.1259  -7.7533  -7.5052  -7.4913  -7.4870
    -7.1037  -7.0736  -6.9774  -6.9754  -6.3382  -6.3255  -6.2557  -6.1952
    -6.1693  -6.0871  -6.0605  -5.9306  -5.8575  -5.8271  -5.7938  -5.7790
    -5.6775  -5.6769  -5.6592  -5.6583  -5.5159  -5.4740  -5.4309  -5.3939
    -5.3893  -5.2496  -5.2418  -5.2204  -4.9925  -4.9828  -4.9827  -4.8781
    -4.7049  -4.6882  -4.6706  -4.6382  -4.5675  -4.5621  -4.5440  -4.5223
    -4.2847  -4.2634  -4.2612  -4.2252  -4.0255  -4.0090  -3.9773  -3.9612
    -3.9368  -3.8747  -3.8484  -3.8371  -3.8298  -3.7959  -3.7779  -3.7743
    -3.7021  -3.6759  -3.6339  -3.6095  -3.4673  -3.4607  -3.3955  -3.3728
    -3.3705  -3.1764  -3.1696  -3.1558  -0.8687  -0.8598  -0.8549  -0.7122
    -0.1316  -0.1213  -0.0270   0.0689   0.1396   0.1714   0.3427   0.3765
     0.4307   0.4804   0.5042   0.5336   0.5439   0.5990   0.7072   0.8356
     0.8707   0.8830   1.0211   1.0536   1.3388   1.3580   1.4831   1.6448
     1.7674   1.7699   1.7728

          k =-0.1250 0.2165 0.2308 ( 96096 PWs)   bands (ev):

  -114.1674-114.1673-114.1672-114.1672 -71.6397 -71.6397 -71.6397 -71.6397
   -71.6396 -71.6396 -71.6395 -71.6395 -71.4672 -71.4672 -71.4671 -71.4671
   -18.7048 -18.5692 -18.5691 -18.5502 -17.7472 -17.7470 -17.7441 -17.7161
   -17.3198 -17.2953 -17.2875 -17.2869 -17.2867 -17.0711 -17.0701 -17.0481
   -17.0307 -17.0305 -17.0303 -17.0300 -17.0299 -17.0188 -17.0187 -17.0168
   -16.9989 -16.9354 -16.9350 -16.9004 -16.2252 -16.1826 -16.1797 -15.8357
   -15.7876 -15.7812 -15.6887 -15.6416 -15.4994 -15.4607 -15.4547 -15.1672
   -15.1439 -15.1418 -15.0787 -15.0402 -12.9344 -12.4021 -12.4020 -12.3287
   -11.1708 -10.7264 -10.7262 -10.6423  -9.5683  -9.3321  -9.3304  -9.2652
    -8.7032  -8.6811  -8.6219  -8.6192  -8.5027  -8.3884  -8.3403  -8.3135
    -8.1139  -8.0821  -8.0774  -8.0452  -7.8823  -7.5060  -7.4164  -7.3981
    -7.1772  -7.1580  -7.1392  -7.1304  -6.3956  -6.3919  -6.3767  -6.1801
    -6.1638  -6.1389  -6.0661  -5.8638  -5.8487  -5.8389  -5.8376  -5.7829
    -5.7213  -5.6485  -5.6448  -5.6377  -5.4526  -5.4346  -5.4314  -5.4087
    -5.4049  -5.1842  -5.1640  -5.1436  -5.0087  -5.0040  -4.9994  -4.8301
    -4.7423  -4.7269  -4.7003  -4.6716  -4.6317  -4.6023  -4.5942  -4.5851
    -4.2695  -4.2544  -4.2466  -4.0887  -4.0813  -4.0543  -4.0482  -3.9538
    -3.8783  -3.8755  -3.8689  -3.8366  -3.8320  -3.7802  -3.7801  -3.7321
    -3.7225  -3.6760  -3.6717  -3.6229  -3.4301  -3.3867  -3.3763  -3.2712
    -3.2695  -3.1570  -3.1455  -3.0248  -1.0781  -0.8526  -0.7654  -0.7628
    -0.1568  -0.0712   0.0324   0.0557   0.1185   0.2228   0.2357   0.3009
     0.4012   0.4039   0.5054   0.5478   0.5584   0.5637   0.5799   0.8686
     0.9156   0.9912   1.0246   1.0900   1.3162   1.3764   1.3878   1.7191
     1.8289   1.8326   1.8461

          k = 0.2500 0.0000-0.2308 ( 96096 PWs)   bands (ev):

  -114.1674-114.1673-114.1672-114.1672 -71.6397 -71.6397 -71.6397 -71.6397
   -71.6396 -71.6396 -71.6395 -71.6395 -71.4672 -71.4672 -71.4671 -71.4671
   -18.7048 -18.5692 -18.5691 -18.5502 -17.7471 -17.7471 -17.7440 -17.7161
   -17.3198 -17.2953 -17.2875 -17.2870 -17.2867 -17.0711 -17.0701 -17.0481
   -17.0307 -17.0305 -17.0303 -17.0299 -17.0299 -17.0187 -17.0187 -17.0168
   -16.9989 -16.9354 -16.9350 -16.9004 -16.2253 -16.1826 -16.1797 -15.8356
   -15.7876 -15.7812 -15.6887 -15.6416 -15.4994 -15.4607 -15.4547 -15.1672
   -15.1439 -15.1418 -15.0787 -15.0402 -12.9344 -12.4021 -12.4020 -12.3287
   -11.1708 -10.7264 -10.7262 -10.6423  -9.5683  -9.3322  -9.3303  -9.2652
    -8.7032  -8.6811  -8.6219  -8.6192  -8.5026  -8.3884  -8.3404  -8.3135
    -8.1139  -8.0821  -8.0774  -8.0453  -7.8823  -7.5059  -7.4164  -7.3981
    -7.1774  -7.1579  -7.1392  -7.1303  -6.3956  -6.3919  -6.3767  -6.1802
    -6.1637  -6.1388  -6.0661  -5.8639  -5.8486  -5.8389  -5.8376  -5.7829
    -5.7212  -5.6484  -5.6448  -5.6377  -5.4525  -5.4345  -5.4315  -5.4087
    -5.4049  -5.1842  -5.1640  -5.1436  -5.0086  -5.0040  -4.9995  -4.8301
    -4.7424  -4.7270  -4.7002  -4.6716  -4.6318  -4.6023  -4.5942  -4.5851
    -4.2695  -4.2544  -4.2466  -4.0888  -4.0813  -4.0543  -4.0482  -3.9538
    -3.8783  -3.8756  -3.8689  -3.8366  -3.8320  -3.7802  -3.7801  -3.7320
    -3.7225  -3.6760  -3.6718  -3.6229  -3.4301  -3.3866  -3.3763  -3.2711
    -3.2696  -3.1570  -3.1455  -3.0248  -1.0781  -0.8527  -0.7654  -0.7627
    -0.1569  -0.0711   0.0323   0.0557   0.1186   0.2228   0.2356   0.3010
     0.4012   0.4039   0.5054   0.5478   0.5584   0.5636   0.5798   0.8686
     0.9156   0.9911   1.0246   1.0900   1.3161   1.3765   1.3877   1.7193
     1.8289   1.8327   1.8453

          k =-0.1250 0.5052 0.2308 ( 96082 PWs)   bands (ev):

  -114.1674-114.1673-114.1672-114.1672 -71.6397 -71.6397 -71.6397 -71.6397
   -71.6396 -71.6396 -71.6395 -71.6395 -71.4672 -71.4672 -71.4671 -71.4671
   -18.6551 -18.6233 -18.5772 -18.5439 -17.7409 -17.7402 -17.7352 -17.7333
   -17.3216 -17.3118 -17.3111 -17.3040 -17.1927 -17.1399 -17.0662 -17.0357
   -17.0297 -17.0294 -17.0288 -17.0286 -17.0275 -17.0247 -17.0210 -17.0175
   -16.9906 -16.9798 -16.9391 -16.8728 -16.1888 -16.1127 -15.9883 -15.9289
   -15.8763 -15.8325 -15.7377 -15.6994 -15.4833 -15.4197 -15.3034 -15.2212
   -15.2004 -15.1515 -15.1060 -15.0790 -12.7174 -12.5933 -12.4150 -12.2852
   -11.0084 -10.9040 -10.7248 -10.5746  -9.4781  -9.4201  -9.2876  -9.1444
    -8.7855  -8.7616  -8.7424  -8.6560  -8.4494  -8.3754  -8.3472  -8.3010
    -8.2903  -8.2425  -8.1636  -8.1634  -7.6708  -7.5908  -7.5467  -7.4248
    -7.0645  -7.0637  -6.9382  -6.9290  -6.3256  -6.2666  -6.2044  -6.2018
    -6.1483  -6.0981  -6.0783  -5.9831  -5.8570  -5.8107  -5.7891  -5.7526
    -5.6912  -5.6792  -5.6557  -5.6481  -5.5224  -5.4796  -5.4431  -5.3926
    -5.3723  -5.3052  -5.2825  -5.2510  -4.9904  -4.9650  -4.9354  -4.8996
    -4.7104  -4.6913  -4.6283  -4.6208  -4.5526  -4.5445  -4.5252  -4.5052
    -4.3167  -4.2982  -4.2886  -4.2507  -4.0079  -3.9948  -3.9662  -3.9572
    -3.9047  -3.8990  -3.8850  -3.8368  -3.8274  -3.8095  -3.8093  -3.7366
    -3.6498  -3.6473  -3.6314  -3.6217  -3.5232  -3.4611  -3.4573  -3.4045
    -3.2924  -3.2729  -3.2234  -3.0800  -0.9131  -0.8091  -0.8015  -0.7374
    -0.2347  -0.0657   0.0081   0.0236   0.0354   0.2974   0.3070   0.4409
     0.4436   0.5020   0.5335   0.5369   0.5550   0.5972   0.7044   0.7252
     0.9167   0.9174   0.9913   1.0495   1.2614   1.4595   1.5548   1.6393
     1.7683   1.7714   1.8343

          k =-0.3750 0.3608-0.2308 ( 96082 PWs)   bands (ev):

  -114.1674-114.1673-114.1672-114.1672 -71.6397 -71.6397 -71.6397 -71.6397
   -71.6396 -71.6396 -71.6395 -71.6395 -71.4672 -71.4672 -71.4671 -71.4671
   -18.6551 -18.6233 -18.5772 -18.5439 -17.7410 -17.7402 -17.7352 -17.7333
   -17.3217 -17.3115 -17.3106 -17.3047 -17.1932 -17.1390 -17.0668 -17.0355
   -17.0298 -17.0294 -17.0288 -17.0286 -17.0274 -17.0248 -17.0209 -17.0175
   -16.9906 -16.9798 -16.9394 -16.8726 -16.1903 -16.1098 -15.9912 -15.9267
   -15.8744 -15.8374 -15.7326 -15.7023 -15.4849 -15.4157 -15.3088 -15.2181
   -15.1998 -15.1533 -15.1031 -15.0811 -12.7173 -12.5934 -12.4149 -12.2852
   -11.0085 -10.9038 -10.7250 -10.5746  -9.4783  -9.4195  -9.2895  -9.1421
    -8.7721  -8.7708  -8.7377  -8.6785  -8.4140  -8.3821  -8.3316  -8.3237
    -8.3128  -8.2281  -8.1638  -8.1634  -7.6708  -7.5914  -7.5443  -7.4313
    -7.0711  -7.0379  -6.9527  -6.9298  -6.3208  -6.2753  -6.2024  -6.1949
    -6.1681  -6.0988  -6.0536  -5.9918  -5.8400  -5.8268  -5.7822  -5.7674
    -5.7044  -5.6564  -5.6504  -5.6429  -5.5191  -5.5177  -5.4098  -5.4034
    -5.3809  -5.2874  -5.2724  -5.2717  -4.9870  -4.9693  -4.9512  -4.8830
    -4.7026  -4.6729  -4.6514  -4.6259  -4.5541  -4.5412  -4.5159  -4.5155
    -4.3072  -4.3027  -4.2906  -4.2515  -4.0121  -3.9837  -3.9721  -3.9693
    -3.9296  -3.8770  -3.8537  -3.8440  -3.8434  -3.8268  -3.7806  -3.7126
    -3.6836  -3.6637  -3.6548  -3.5746  -3.5044  -3.4843  -3.4220  -3.4182
    -3.3478  -3.2619  -3.1979  -3.0822  -0.9112  -0.8119  -0.8025  -0.7356
    -0.2325  -0.0744   0.0026   0.0332   0.0491   0.2741   0.3218   0.4279
     0.4866   0.4887   0.4914   0.5263   0.5440   0.6195   0.7159   0.7860
     0.8246   0.9393   0.9973   1.0659   1.2555   1.4724   1.5618   1.6317
     1.7687   1.7810   1.8155

          k = 0.5000 0.1443-0.2308 ( 96082 PWs)   bands (ev):

  -114.1674-114.1673-114.1672-114.1672 -71.6397 -71.6397 -71.6397 -71.6397
   -71.6396 -71.6396 -71.6395 -71.6395 -71.4672 -71.4672 -71.4671 -71.4671
   -18.6551 -18.6233 -18.5772 -18.5439 -17.7409 -17.7402 -17.7352 -17.7334
   -17.3218 -17.3114 -17.3106 -17.3047 -17.1932 -17.1390 -17.0668 -17.0355
   -17.0298 -17.0294 -17.0288 -17.0286 -17.0274 -17.0248 -17.0209 -17.0175
   -16.9906 -16.9798 -16.9394 -16.8726 -16.1904 -16.1098 -15.9912 -15.9267
   -15.8744 -15.8374 -15.7325 -15.7023 -15.4848 -15.4156 -15.3088 -15.2181
   -15.1998 -15.1533 -15.1031 -15.0811 -12.7173 -12.5934 -12.4149 -12.2852
   -11.0085 -10.9038 -10.7250 -10.5746  -9.4783  -9.4194  -9.2895  -9.1421
    -8.7721  -8.7708  -8.7378  -8.6785  -8.4140  -8.3821  -8.3316  -8.3238
    -8.3128  -8.2281  -8.1638  -8.1635  -7.6708  -7.5913  -7.5444  -7.4313
    -7.0710  -7.0378  -6.9528  -6.9298  -6.3208  -6.2753  -6.2024  -6.1949
    -6.1682  -6.0988  -6.0535  -5.9918  -5.8401  -5.8268  -5.7821  -5.7674
    -5.7044  -5.6564  -5.6504  -5.6430  -5.5191  -5.5176  -5.4099  -5.4034
    -5.3809  -5.2874  -5.2723  -5.2716  -4.9870  -4.9693  -4.9512  -4.8829
    -4.7027  -4.6729  -4.6514  -4.6259  -4.5541  -4.5411  -4.5159  -4.5155
    -4.3072  -4.3027  -4.2906  -4.2515  -4.0121  -3.9837  -3.9720  -3.9693
    -3.9295  -3.8770  -3.8537  -3.8440  -3.8434  -3.8268  -3.7806  -3.7126
    -3.6835  -3.6637  -3.6547  -3.5746  -3.5044  -3.4843  -3.4220  -3.4182
    -3.3478  -3.2620  -3.1979  -3.0822  -0.9113  -0.8120  -0.8024  -0.7356
    -0.2325  -0.0744   0.0026   0.0332   0.0491   0.2741   0.3219   0.4279
     0.4866   0.4887   0.4914   0.5263   0.5441   0.6195   0.7159   0.7859
     0.8245   0.9394   0.9973   1.0659   1.2555   1.4724   1.5618   1.6318
     1.7687   1.7813   1.8159

          k =-0.3750-0.3608 0.2308 ( 96082 PWs)   bands (ev):

  -114.1674-114.1673-114.1672-114.1672 -71.6397 -71.6397 -71.6397 -71.6397
   -71.6396 -71.6396 -71.6395 -71.6395 -71.4672 -71.4672 -71.4671 -71.4671
   -18.6551 -18.6233 -18.5772 -18.5439 -17.7409 -17.7403 -17.7352 -17.7333
   -17.3216 -17.3118 -17.3111 -17.3040 -17.1928 -17.1399 -17.0662 -17.0357
   -17.0297 -17.0294 -17.0288 -17.0286 -17.0275 -17.0247 -17.0210 -17.0175
   -16.9906 -16.9798 -16.9391 -16.8728 -16.1888 -16.1127 -15.9883 -15.9289
   -15.8762 -15.8324 -15.7378 -15.6994 -15.4833 -15.4197 -15.3034 -15.2212
   -15.2004 -15.1515 -15.1060 -15.0790 -12.7174 -12.5933 -12.4150 -12.2852
   -11.0084 -10.9040 -10.7248 -10.5746  -9.4781  -9.4201  -9.2875  -9.1445
    -8.7854  -8.7617  -8.7424  -8.6559  -8.4494  -8.3753  -8.3472  -8.3010
    -8.2902  -8.2426  -8.1637  -8.1634  -7.6708  -7.5907  -7.5467  -7.4248
    -7.0645  -7.0637  -6.9383  -6.9290  -6.3256  -6.2665  -6.2045  -6.2018
    -6.1483  -6.0981  -6.0783  -5.9831  -5.8571  -5.8108  -5.7890  -5.7525
    -5.6911  -5.6791  -5.6557  -5.6481  -5.5223  -5.4795  -5.4431  -5.3926
    -5.3724  -5.3053  -5.2825  -5.2510  -4.9905  -4.9651  -4.9354  -4.8995
    -4.7104  -4.6913  -4.6284  -4.6208  -4.5526  -4.5445  -4.5252  -4.5052
    -4.3166  -4.2982  -4.2885  -4.2507  -4.0079  -3.9949  -3.9663  -3.9572
    -3.9047  -3.8989  -3.8850  -3.8368  -3.8275  -3.8096  -3.8092  -3.7367
    -3.6498  -3.6472  -3.6314  -3.6217  -3.5233  -3.4610  -3.4574  -3.4044
    -3.2924  -3.2729  -3.2235  -3.0800  -0.9132  -0.8092  -0.8014  -0.7373
    -0.2347  -0.0656   0.0080   0.0236   0.0354   0.2974   0.3071   0.4409
     0.4435   0.5020   0.5335   0.5370   0.5550   0.5972   0.7043   0.7252
     0.9167   0.9172   0.9913   1.0495   1.2614   1.4597   1.5548   1.6393
     1.7675   1.7715   1.8352

          k = 0.5000-0.1443 0.2308 ( 96082 PWs)   bands (ev):

  -114.1674-114.1673-114.1672-114.1672 -71.6397 -71.6397 -71.6397 -71.6397
   -71.6396 -71.6396 -71.6395 -71.6395 -71.4672 -71.4672 -71.4671 -71.4671
   -18.6551 -18.6233 -18.5772 -18.5439 -17.7409 -17.7402 -17.7352 -17.7333
   -17.3216 -17.3118 -17.3111 -17.3040 -17.1928 -17.1399 -17.0663 -17.0357
   -17.0297 -17.0294 -17.0288 -17.0286 -17.0275 -17.0247 -17.0210 -17.0175
   -16.9906 -16.9798 -16.9391 -16.8728 -16.1889 -16.1127 -15.9883 -15.9289
   -15.8762 -15.8324 -15.7378 -15.6995 -15.4834 -15.4197 -15.3034 -15.2212
   -15.2004 -15.1515 -15.1060 -15.0790 -12.7174 -12.5933 -12.4150 -12.2852
   -11.0084 -10.9040 -10.7248 -10.5746  -9.4781  -9.4201  -9.2875  -9.1444
    -8.7855  -8.7616  -8.7424  -8.6559  -8.4493  -8.3754  -8.3472  -8.3011
    -8.2903  -8.2425  -8.1636  -8.1634  -7.6708  -7.5908  -7.5467  -7.4248
    -7.0645  -7.0639  -6.9382  -6.9289  -6.3256  -6.2666  -6.2044  -6.2018
    -6.1483  -6.0981  -6.0784  -5.9832  -5.8571  -5.8107  -5.7891  -5.7525
    -5.6912  -5.6791  -5.6557  -5.6480  -5.5224  -5.4795  -5.4431  -5.3925
    -5.3724  -5.3053  -5.2826  -5.2510  -4.9904  -4.9650  -4.9354  -4.8995
    -4.7104  -4.6913  -4.6284  -4.6208  -4.5526  -4.5445  -4.5252  -4.5052
    -4.3166  -4.2982  -4.2885  -4.2507  -4.0080  -3.9948  -3.9662  -3.9573
    -3.9047  -3.8989  -3.8850  -3.8367  -3.8275  -3.8095  -3.8092  -3.7367
    -3.6498  -3.6473  -3.6314  -3.6217  -3.5233  -3.4610  -3.4573  -3.4045
    -3.2924  -3.2729  -3.2235  -3.0800  -0.9131  -0.8091  -0.8014  -0.7374
    -0.2347  -0.0656   0.0081   0.0236   0.0354   0.2974   0.3071   0.4409
     0.4435   0.5020   0.5335   0.5369   0.5550   0.5972   0.7045   0.7252
     0.9166   0.9173   0.9913   1.0495   1.2614   1.4595   1.5548   1.6392
     1.7686   1.7714   1.8352

          k =-0.1250-0.3608 0.2308 ( 96078 PWs)   bands (ev):

  -114.1674-114.1673-114.1672-114.1672 -71.6397 -71.6397 -71.6397 -71.6397
   -71.6396 -71.6396 -71.6395 -71.6395 -71.4672 -71.4672 -71.4671 -71.4671
   -18.6836 -18.5930 -18.5743 -18.5460 -17.7446 -17.7437 -17.7388 -17.7247
   -17.3166 -17.3114 -17.3004 -17.2960 -17.2455 -17.0959 -17.0693 -17.0393
   -17.0302 -17.0300 -17.0294 -17.0292 -17.0292 -17.0217 -17.0199 -17.0171
   -16.9961 -16.9604 -16.9385 -16.8833 -16.2092 -16.1392 -16.0988 -15.8866
   -15.8151 -15.7696 -15.7610 -15.6681 -15.4933 -15.4291 -15.3929 -15.1858
   -15.1493 -15.1400 -15.1251 -15.0577 -12.8376 -12.4835 -12.4113 -12.3015
   -11.1017 -10.8042 -10.7277 -10.6008  -9.5304  -9.3667  -9.3112  -9.1979
    -8.7578  -8.7240  -8.6822  -8.6452  -8.4445  -8.4241  -8.3528  -8.3178
    -8.2113  -8.1564  -8.1210  -8.1146  -7.7905  -7.5640  -7.4412  -7.4310
    -7.1065  -7.0591  -7.0557  -7.0156  -6.3460  -6.3168  -6.3163  -6.1889
    -6.1748  -6.1046  -6.0523  -5.9023  -5.8522  -5.8415  -5.8073  -5.7857
    -5.6819  -5.6758  -5.6491  -5.6381  -5.4833  -5.4808  -5.4283  -5.4250
    -5.3936  -5.2408  -5.2151  -5.2021  -4.9947  -4.9927  -4.9889  -4.8523
    -4.7243  -4.7091  -4.6607  -4.6436  -4.5919  -4.5573  -4.5567  -4.5485
    -4.2780  -4.2494  -4.2481  -4.1691  -4.0578  -4.0235  -3.9978  -3.9576
    -3.9474  -3.8712  -3.8559  -3.8460  -3.8396  -3.7930  -3.7592  -3.7322
    -3.7188  -3.6917  -3.6613  -3.6049  -3.4565  -3.4123  -3.3879  -3.3738
    -3.3316  -3.2666  -3.1056  -3.0997  -0.9249  -0.8912  -0.7888  -0.7277
    -0.1642  -0.0635  -0.0307   0.0647   0.0825   0.2719   0.2962   0.3873
     0.4067   0.4780   0.4845   0.5253   0.5325   0.6006   0.6340   0.7976
     0.8779   0.9884   0.9983   1.0753   1.2863   1.4287   1.4526   1.6804
     1.7660   1.7775   1.7936

          k = 0.3750-0.0722-0.2308 ( 96078 PWs)   bands (ev):

  -114.1674-114.1673-114.1672-114.1672 -71.6397 -71.6397 -71.6397 -71.6397
   -71.6396 -71.6396 -71.6395 -71.6395 -71.4672 -71.4672 -71.4671 -71.4671
   -18.6836 -18.5930 -18.5744 -18.5460 -17.7447 -17.7435 -17.7389 -17.7247
   -17.3168 -17.3111 -17.3015 -17.2951 -17.2454 -17.0970 -17.0680 -17.0396
   -17.0302 -17.0299 -17.0294 -17.0293 -17.0292 -17.0216 -17.0200 -17.0171
   -16.9961 -16.9606 -16.9379 -16.8837 -16.2073 -16.1444 -16.0953 -15.8898
   -15.8054 -15.7702 -15.7679 -15.6672 -15.4909 -15.4377 -15.3862 -15.1867
   -15.1459 -15.1411 -15.1280 -15.0569 -12.8376 -12.4835 -12.4114 -12.3015
   -11.1017 -10.8044 -10.7274 -10.6009  -9.5304  -9.3682  -9.3079  -9.2002
    -8.7551  -8.7400  -8.6836  -8.6101  -8.4655  -8.4428  -8.3414  -8.3097
    -8.2085  -8.1571  -8.1236  -8.1144  -7.7906  -7.5637  -7.4509  -7.4141
    -7.1171  -7.0949  -7.0170  -7.0147  -6.3540  -6.3146  -6.3067  -6.2021
    -6.1364  -6.1352  -6.0519  -5.9024  -5.8692  -5.8187  -5.8174  -5.7754
    -5.6924  -5.6640  -5.6524  -5.6479  -5.4846  -5.4639  -5.4203  -5.4192
    -5.4147  -5.2376  -5.2275  -5.1945  -4.9978  -4.9862  -4.9844  -4.8600
    -4.7273  -4.7239  -4.6494  -4.6359  -4.5868  -4.5665  -4.5614  -4.5398
    -4.2765  -4.2577  -4.2440  -4.1678  -4.0537  -4.0412  -3.9830  -3.9561
    -3.9176  -3.9074  -3.8540  -3.8367  -3.8341  -3.7973  -3.7699  -3.7605
    -3.6894  -3.6879  -3.6543  -3.6132  -3.4799  -3.4160  -3.3878  -3.3388
    -3.3226  -3.2802  -3.1073  -3.1025  -0.9247  -0.8939  -0.7839  -0.7300
    -0.1687  -0.0624  -0.0072   0.0423   0.0687   0.2790   0.3087   0.3628
     0.4322   0.4977   0.5057   0.5190   0.5503   0.5765   0.5880   0.8131
     0.9022   0.9410   1.0364   1.0550   1.2947   1.4067   1.4626   1.6804
     1.7678   1.7705   1.7958

          k =-0.2500-0.2887-0.2308 ( 96078 PWs)   bands (ev):

  -114.1674-114.1673-114.1672-114.1672 -71.6397 -71.6397 -71.6397 -71.6397
   -71.6396 -71.6396 -71.6395 -71.6395 -71.4672 -71.4672 -71.4671 -71.4671
   -18.6836 -18.5930 -18.5744 -18.5460 -17.7448 -17.7435 -17.7389 -17.7247
   -17.3167 -17.3111 -17.3016 -17.2951 -17.2454 -17.0969 -17.0681 -17.0396
   -17.0302 -17.0299 -17.0294 -17.0293 -17.0292 -17.0216 -17.0200 -17.0171
   -16.9961 -16.9606 -16.9379 -16.8837 -16.2072 -16.1444 -16.0953 -15.8898
   -15.8054 -15.7703 -15.7679 -15.6672 -15.4908 -15.4377 -15.3861 -15.1867
   -15.1458 -15.1411 -15.1281 -15.0568 -12.8376 -12.4835 -12.4114 -12.3015
   -11.1017 -10.8044 -10.7274 -10.6009  -9.5304  -9.3682  -9.3079  -9.2002
    -8.7551  -8.7400  -8.6836  -8.6101  -8.4655  -8.4428  -8.3414  -8.3097
    -8.2085  -8.1571  -8.1236  -8.1143  -7.7906  -7.5636  -7.4509  -7.4141
    -7.1169  -7.0948  -7.0170  -7.0148  -6.3540  -6.3146  -6.3067  -6.2021
    -6.1364  -6.1352  -6.0520  -5.9023  -5.8692  -5.8186  -5.8175  -5.7754
    -5.6925  -5.6640  -5.6525  -5.6479  -5.4845  -5.4640  -5.4203  -5.4192
    -5.4147  -5.2375  -5.2275  -5.1945  -4.9978  -4.9861  -4.9845  -4.8600
    -4.7273  -4.7239  -4.6494  -4.6359  -4.5868  -4.5665  -4.5614  -4.5398
    -4.2765  -4.2577  -4.2440  -4.1678  -4.0536  -4.0412  -3.9831  -3.9561
    -3.9176  -3.9074  -3.8540  -3.8367  -3.8342  -3.7973  -3.7699  -3.7606
    -3.6894  -3.6878  -3.6543  -3.6132  -3.4799  -3.4160  -3.3878  -3.3388
    -3.3227  -3.2802  -3.1073  -3.1026  -0.9246  -0.8939  -0.7840  -0.7299
    -0.1688  -0.0624  -0.0072   0.0422   0.0687   0.2789   0.3087   0.3627
     0.4322   0.4977   0.5057   0.5191   0.5503   0.5765   0.5879   0.8132
     0.9022   0.9410   1.0363   1.0550   1.2947   1.4066   1.4625   1.6806
     1.7680   1.7707   1.7959

          k = 0.3750 0.0722 0.2308 ( 96078 PWs)   bands (ev):

  -114.1674-114.1673-114.1672-114.1672 -71.6397 -71.6397 -71.6397 -71.6397
   -71.6396 -71.6396 -71.6395 -71.6395 -71.4672 -71.4672 -71.4671 -71.4671
   -18.6836 -18.5930 -18.5744 -18.5460 -17.7447 -17.7436 -17.7388 -17.7247
   -17.3166 -17.3114 -17.3004 -17.2960 -17.2455 -17.0959 -17.0693 -17.0393
   -17.0302 -17.0300 -17.0294 -17.0292 -17.0292 -17.0217 -17.0199 -17.0171
   -16.9961 -16.9604 -16.9385 -16.8833 -16.2092 -16.1393 -16.0987 -15.8866
   -15.8151 -15.7696 -15.7610 -15.6681 -15.4933 -15.4291 -15.3929 -15.1858
   -15.1493 -15.1400 -15.1251 -15.0577 -12.8376 -12.4835 -12.4113 -12.3015
   -11.1017 -10.8041 -10.7277 -10.6008  -9.5304  -9.3667  -9.3112  -9.1979
    -8.7578  -8.7239  -8.6823  -8.6451  -8.4444  -8.4241  -8.3528  -8.3177
    -8.2113  -8.1563  -8.1210  -8.1147  -7.7904  -7.5640  -7.4412  -7.4309
    -7.1066  -7.0590  -7.0558  -7.0156  -6.3460  -6.3168  -6.3163  -6.1889
    -6.1748  -6.1045  -6.0523  -5.9024  -5.8522  -5.8416  -5.8071  -5.7857
    -5.6818  -5.6758  -5.6490  -5.6382  -5.4832  -5.4807  -5.4283  -5.4251
    -5.3937  -5.2408  -5.2151  -5.2022  -4.9946  -4.9927  -4.9890  -4.8523
    -4.7243  -4.7091  -4.6607  -4.6436  -4.5919  -4.5573  -4.5567  -4.5485
    -4.2780  -4.2494  -4.2481  -4.1691  -4.0578  -4.0235  -3.9978  -3.9576
    -3.9474  -3.8712  -3.8559  -3.8460  -3.8396  -3.7929  -3.7592  -3.7321
    -3.7188  -3.6917  -3.6614  -3.6049  -3.4566  -3.4122  -3.3878  -3.3738
    -3.3316  -3.2667  -3.1056  -3.0997  -0.9249  -0.8913  -0.7889  -0.7276
    -0.1642  -0.0636  -0.0306   0.0647   0.0825   0.2720   0.2962   0.3873
     0.4067   0.4780   0.4846   0.5254   0.5325   0.6006   0.6339   0.7976
     0.8779   0.9885   0.9983   1.0753   1.2863   1.4287   1.4527   1.6805
     1.7659   1.7777   1.7935

          k =-0.2500 0.2887 0.2308 ( 96078 PWs)   bands (ev):

  -114.1674-114.1673-114.1672-114.1672 -71.6397 -71.6397 -71.6397 -71.6397
   -71.6396 -71.6396 -71.6395 -71.6395 -71.4672 -71.4672 -71.4671 -71.4671
   -18.6836 -18.5930 -18.5744 -18.5460 -17.7446 -17.7437 -17.7389 -17.7246
   -17.3167 -17.3114 -17.3004 -17.2960 -17.2454 -17.0959 -17.0693 -17.0393
   -17.0302 -17.0300 -17.0294 -17.0292 -17.0292 -17.0217 -17.0199 -17.0171
   -16.9961 -16.9604 -16.9385 -16.8833 -16.2092 -16.1393 -16.0987 -15.8866
   -15.8151 -15.7696 -15.7610 -15.6681 -15.4933 -15.4291 -15.3929 -15.1858
   -15.1493 -15.1400 -15.1251 -15.0577 -12.8376 -12.4835 -12.4113 -12.3015
   -11.1017 -10.8042 -10.7277 -10.6008  -9.5304  -9.3667  -9.3111  -9.1978
    -8.7578  -8.7240  -8.6822  -8.6452  -8.4445  -8.4242  -8.3527  -8.3178
    -8.2113  -8.1564  -8.1210  -8.1146  -7.7905  -7.5640  -7.4412  -7.4310
    -7.1066  -7.0591  -7.0556  -7.0156  -6.3460  -6.3168  -6.3163  -6.1889
    -6.1748  -6.1046  -6.0523  -5.9023  -5.8521  -5.8416  -5.8072  -5.7858
    -5.6818  -5.6758  -5.6491  -5.6381  -5.4832  -5.4807  -5.4282  -5.4251
    -5.3937  -5.2408  -5.2151  -5.2022  -4.9947  -4.9926  -4.9889  -4.8523
    -4.7243  -4.7090  -4.6607  -4.6436  -4.5919  -4.5573  -4.5567  -4.5485
    -4.2780  -4.2494  -4.2481  -4.1691  -4.0578  -4.0235  -3.9979  -3.9577
    -3.9474  -3.8712  -3.8559  -3.8460  -3.8395  -3.7929  -3.7592  -3.7322
    -3.7189  -3.6917  -3.6614  -3.6049  -3.4566  -3.4123  -3.3879  -3.3739
    -3.3316  -3.2666  -3.1056  -3.0997  -0.9250  -0.8912  -0.7888  -0.7276
    -0.1642  -0.0635  -0.0306   0.0647   0.0824   0.2719   0.2961   0.3873
     0.4067   0.4781   0.4846   0.5254   0.5324   0.6006   0.6339   0.7975
     0.8779   0.9884   0.9984   1.0752   1.2864   1.4287   1.4526   1.6800
     1.7774   1.7935   1.8409

          k =-0.1250-0.0722 0.2308 ( 96030 PWs)   bands (ev):

  -114.1674-114.1673-114.1672-114.1672 -71.6397 -71.6397 -71.6397 -71.6397
   -71.6396 -71.6396 -71.6395 -71.6395 -71.4672 -71.4672 -71.4671 -71.4671
   -18.7161 -18.5627 -18.5561 -18.5559 -17.7491 -17.7481 -17.7480 -17.7105
   -17.3212 -17.3100 -17.2819 -17.2816 -17.2784 -17.0681 -17.0595 -17.0592
   -17.0309 -17.0308 -17.0306 -17.0305 -17.0304 -17.0176 -17.0170 -17.0169
   -17.0001 -16.9286 -16.9170 -16.9167 -16.2285 -16.2272 -16.2124 -15.7951
   -15.7924 -15.7760 -15.6441 -15.6275 -15.4982 -15.4957 -15.4816 -15.1518
   -15.1511 -15.1433 -15.0443 -15.0312 -12.9888 -12.3845 -12.3588 -12.3588
   -11.2074 -10.7130 -10.6837 -10.6836  -9.5880  -9.3355  -9.3142  -9.3133
    -8.6574  -8.6413  -8.6293  -8.5773  -8.5360  -8.3372  -8.3231  -8.3142
    -8.0541  -8.0514  -8.0397  -7.9914  -7.9314  -7.4322  -7.4239  -7.3896
    -7.2327  -7.2279  -7.2209  -7.2076  -6.4273  -6.4245  -6.4223  -6.1699
    -6.1607  -6.1547  -6.0923  -5.8611  -5.8557  -5.8516  -5.8112  -5.7733
    -5.7461  -5.6401  -5.6400  -5.6379  -5.4361  -5.4263  -5.4206  -5.3993
    -5.3850  -5.1475  -5.1399  -5.1312  -5.0009  -4.9947  -4.9946  -4.8003
    -4.7392  -4.7293  -4.7205  -4.7109  -4.6534  -4.6442  -4.6388  -4.6208
    -4.2736  -4.2686  -4.2651  -4.1091  -4.0994  -4.0977  -4.0048  -3.9447
    -3.9130  -3.8623  -3.8461  -3.8424  -3.7921  -3.7884  -3.7878  -3.7237
    -3.7098  -3.7034  -3.6292  -3.5847  -3.3914  -3.3867  -3.3737  -3.2415
    -3.1958  -3.1949  -3.0344  -2.9836  -1.1935  -0.8050  -0.8038  -0.7691
    -0.2328   0.0149   0.0251   0.0762   0.1255   0.1300   0.1464   0.3475
     0.3505   0.3828   0.5450   0.5487   0.5645   0.5700   0.5775   0.8605
     0.9933   1.0075   1.0290   1.0980   1.3406   1.3443   1.3671   1.7573
     1.8799   1.9052   1.9056

          k = 0.0000-0.1443-0.2308 ( 96030 PWs)   bands (ev):

  -114.1674-114.1673-114.1672-114.1672 -71.6397 -71.6397 -71.6397 -71.6397
   -71.6396 -71.6396 -71.6395 -71.6395 -71.4672 -71.4672 -71.4671 -71.4671
   -18.7161 -18.5627 -18.5560 -18.5560 -17.7491 -17.7481 -17.7480 -17.7105
   -17.3213 -17.3099 -17.2819 -17.2815 -17.2784 -17.0682 -17.0595 -17.0592
   -17.0309 -17.0308 -17.0306 -17.0305 -17.0304 -17.0176 -17.0170 -17.0169
   -17.0001 -16.9286 -16.9170 -16.9168 -16.2284 -16.2272 -16.2125 -15.7951
   -15.7924 -15.7760 -15.6442 -15.6275 -15.4982 -15.4957 -15.4816 -15.1519
   -15.1511 -15.1433 -15.0443 -15.0311 -12.9888 -12.3845 -12.3588 -12.3588
   -11.2074 -10.7130 -10.6837 -10.6836  -9.5880  -9.3355  -9.3141  -9.3134
    -8.6573  -8.6414  -8.6294  -8.5772  -8.5361  -8.3372  -8.3231  -8.3142
    -8.0541  -8.0514  -8.0397  -7.9913  -7.9314  -7.4322  -7.4239  -7.3896
    -7.2327  -7.2278  -7.2207  -7.2078  -6.4273  -6.4245  -6.4223  -6.1698
    -6.1606  -6.1548  -6.0923  -5.8610  -5.8556  -5.8518  -5.8112  -5.7732
    -5.7462  -5.6402  -5.6400  -5.6379  -5.4360  -5.4265  -5.4206  -5.3993
    -5.3849  -5.1475  -5.1399  -5.1312  -5.0009  -4.9947  -4.9946  -4.8003
    -4.7391  -4.7293  -4.7204  -4.7110  -4.6534  -4.6442  -4.6388  -4.6208
    -4.2736  -4.2687  -4.2651  -4.1090  -4.0994  -4.0977  -4.0048  -3.9447
    -3.9130  -3.8623  -3.8461  -3.8423  -3.7921  -3.7883  -3.7878  -3.7237
    -3.7098  -3.7034  -3.6291  -3.5847  -3.3914  -3.3866  -3.3737  -3.2415
    -3.1959  -3.1948  -3.0344  -2.9836  -1.1935  -0.8050  -0.8037  -0.7692
    -0.2328   0.0148   0.0250   0.0762   0.1255   0.1300   0.1465   0.3474
     0.3505   0.3828   0.5449   0.5487   0.5645   0.5700   0.5777   0.8605
     0.9934   1.0074   1.0290   1.0980   1.3406   1.3444   1.3670   1.7575
     1.8798   1.9052   1.9057

          k =-0.3750 0.6495 0.2308 ( 96124 PWs)   bands (ev):

  -114.1674-114.1673-114.1672-114.1672 -71.6397 -71.6397 -71.6397 -71.6397
   -71.6396 -71.6396 -71.6395 -71.6395 -71.4672 -71.4672 -71.4671 -71.4671
   -18.6305 -18.6304 -18.6031 -18.5367 -17.7405 -17.7380 -17.7379 -17.7319
   -17.3284 -17.3109 -17.3107 -17.3105 -17.1474 -17.1469 -17.1009 -17.0302
   -17.0293 -17.0293 -17.0288 -17.0288 -17.0257 -17.0257 -17.0235 -17.0168
   -16.9827 -16.9826 -16.9668 -16.8512 -16.1954 -16.0348 -15.9646 -15.9543
   -15.9522 -15.7888 -15.7425 -15.7391 -15.4916 -15.3554 -15.2880 -15.2846
   -15.2165 -15.1258 -15.1012 -15.0993 -12.6179 -12.6178 -12.5119 -12.2539
   -10.9229 -10.9227 -10.8233 -10.5332  -9.4257  -9.4253  -9.3589  -9.0782
    -8.7962  -8.7808  -8.7749  -8.5964  -8.5131  -8.3770  -8.3272  -8.3158
    -8.2842  -8.2425  -8.2109  -8.2086  -7.6582  -7.5609  -7.5597  -7.4607
    -7.0544  -6.9796  -6.9356  -6.9220  -6.2614  -6.2287  -6.1929  -6.1731
    -6.1724  -6.1186  -6.0659  -6.0512  -5.8471  -5.7935  -5.7816  -5.7643
    -5.7293  -5.6326  -5.6285  -5.6189  -5.5227  -5.5044  -5.4726  -5.3761
    -5.3583  -5.3481  -5.3240  -5.3055  -4.9891  -4.9319  -4.9081  -4.8964
    -4.7035  -4.6799  -4.6644  -4.5842  -4.5365  -4.5239  -4.5149  -4.5072
    -4.3223  -4.3164  -4.3139  -4.2768  -4.0081  -3.9942  -3.9901  -3.9760
    -3.9055  -3.8964  -3.8835  -3.8249  -3.8200  -3.8023  -3.7932  -3.6969
    -3.6715  -3.6539  -3.6244  -3.5949  -3.5467  -3.5381  -3.4713  -3.3893
    -3.3025  -3.2756  -3.2487  -3.0253  -0.9378  -0.7747  -0.7679  -0.7667
    -0.3045  -0.0428  -0.0189   0.0055   0.0128   0.2894   0.4102   0.4550
     0.4750   0.4754   0.5047   0.5379   0.5625   0.6292   0.6501   0.7522
     0.7852   0.9996   1.0230   1.0511   1.1892   1.6160   1.6641   1.6768
     1.7435   1.7599   1.7637

          k = 0.7500 0.0000-0.2308 ( 96124 PWs)   bands (ev):

  -114.1674-114.1673-114.1672-114.1672 -71.6397 -71.6397 -71.6397 -71.6397
   -71.6396 -71.6396 -71.6395 -71.6395 -71.4672 -71.4672 -71.4671 -71.4671
   -18.6304 -18.6304 -18.6031 -18.5367 -17.7406 -17.7380 -17.7379 -17.7319
   -17.3284 -17.3109 -17.3106 -17.3105 -17.1474 -17.1469 -17.1009 -17.0302
   -17.0293 -17.0293 -17.0288 -17.0288 -17.0257 -17.0257 -17.0235 -17.0168
   -16.9826 -16.9826 -16.9668 -16.8512 -16.1954 -16.0347 -15.9646 -15.9544
   -15.9523 -15.7889 -15.7425 -15.7390 -15.4916 -15.3554 -15.2880 -15.2846
   -15.2166 -15.1258 -15.1012 -15.0993 -12.6179 -12.6178 -12.5119 -12.2539
   -10.9228 -10.9227 -10.8232 -10.5332  -9.4257  -9.4253  -9.3589  -9.0782
    -8.7962  -8.7808  -8.7749  -8.5964  -8.5130  -8.3770  -8.3272  -8.3159
    -8.2842  -8.2425  -8.2109  -8.2085  -7.6582  -7.5609  -7.5597  -7.4607
    -7.0544  -6.9796  -6.9356  -6.9221  -6.2613  -6.2287  -6.1929  -6.1730
    -6.1724  -6.1187  -6.0658  -6.0512  -5.8470  -5.7934  -5.7816  -5.7644
    -5.7293  -5.6326  -5.6286  -5.6189  -5.5228  -5.5044  -5.4726  -5.3761
    -5.3583  -5.3480  -5.3240  -5.3055  -4.9891  -4.9318  -4.9081  -4.8964
    -4.7035  -4.6799  -4.6644  -4.5842  -4.5365  -4.5239  -4.5149  -4.5071
    -4.3224  -4.3164  -4.3139  -4.2768  -4.0081  -3.9942  -3.9901  -3.9761
    -3.9055  -3.8964  -3.8835  -3.8249  -3.8201  -3.8023  -3.7932  -3.6968
    -3.6716  -3.6539  -3.6245  -3.5948  -3.5467  -3.5381  -3.4713  -3.3893
    -3.3025  -3.2756  -3.2487  -3.0252  -0.9377  -0.7746  -0.7679  -0.7667
    -0.3045  -0.0429  -0.0190   0.0055   0.0129   0.2893   0.4102   0.4550
     0.4750   0.4753   0.5047   0.5380   0.5625   0.6292   0.6500   0.7522
     0.7853   0.9996   1.0230   1.0511   1.1892   1.6160   1.6642   1.6768
     1.7436   1.7598   1.7634

          k =-0.3750-0.2165 0.2308 ( 96096 PWs)   bands (ev):

  -114.1674-114.1673-114.1672-114.1672 -71.6397 -71.6397 -71.6397 -71.6397
   -71.6396 -71.6396 -71.6395 -71.6395 -71.4672 -71.4672 -71.4671 -71.4671
   -18.6737 -18.6102 -18.5572 -18.5570 -17.7432 -17.7400 -17.7398 -17.7282
   -17.3139 -17.3115 -17.3108 -17.2972 -17.2277 -17.1223 -17.0480 -17.0474
   -17.0301 -17.0295 -17.0290 -17.0290 -17.0286 -17.0234 -17.0186 -17.0185
   -16.9945 -16.9732 -16.9064 -16.9058 -16.1750 -16.1708 -16.0431 -15.8732
   -15.8664 -15.8100 -15.7397 -15.6763 -15.4683 -15.4629 -15.3432 -15.1752
   -15.1731 -15.1676 -15.1128 -15.0659 -12.7949 -12.5469 -12.3413 -12.3412
   -11.0699 -10.8645 -10.6455 -10.6453  -9.5132  -9.4027  -9.2328  -9.2286
    -8.7556  -8.7323  -8.7030  -8.6985  -8.4236  -8.3895  -8.3401  -8.3381
    -8.2294  -8.2183  -8.1283  -8.1259  -7.7533  -7.5052  -7.4913  -7.4870
    -7.1036  -7.0735  -6.9774  -6.9755  -6.3382  -6.3255  -6.2557  -6.1952
    -6.1693  -6.0870  -6.0605  -5.9306  -5.8575  -5.8273  -5.7938  -5.7789
    -5.6775  -5.6770  -5.6591  -5.6584  -5.5158  -5.4739  -5.4310  -5.3939
    -5.3893  -5.2496  -5.2418  -5.2203  -4.9925  -4.9828  -4.9827  -4.8781
    -4.7049  -4.6883  -4.6706  -4.6381  -4.5674  -4.5620  -4.5441  -4.5224
    -4.2847  -4.2634  -4.2612  -4.2252  -4.0255  -4.0089  -3.9773  -3.9612
    -3.9368  -3.8748  -3.8484  -3.8371  -3.8298  -3.7959  -3.7779  -3.7742
    -3.7021  -3.6758  -3.6339  -3.6095  -3.4673  -3.4607  -3.3955  -3.3728
    -3.3705  -3.1765  -3.1696  -3.1558  -0.8687  -0.8599  -0.8550  -0.7122
    -0.1316  -0.1212  -0.0271   0.0689   0.1397   0.1714   0.3427   0.3766
     0.4307   0.4804   0.5042   0.5336   0.5438   0.5990   0.7071   0.8356
     0.8708   0.8830   1.0211   1.0536   1.3388   1.3581   1.4833   1.6449
     1.7677   1.7704   1.8515

          k = 0.0000-0.4330-0.2308 ( 96096 PWs)   bands (ev):

  -114.1674-114.1673-114.1672-114.1672 -71.6397 -71.6397 -71.6397 -71.6397
   -71.6396 -71.6396 -71.6395 -71.6395 -71.4672 -71.4672 -71.4671 -71.4671
   -18.6737 -18.6102 -18.5571 -18.5571 -17.7431 -17.7400 -17.7398 -17.7281
   -17.3140 -17.3115 -17.3108 -17.2973 -17.2277 -17.1223 -17.0480 -17.0474
   -17.0301 -17.0295 -17.0290 -17.0290 -17.0286 -17.0234 -17.0186 -17.0185
   -16.9944 -16.9732 -16.9064 -16.9058 -16.1749 -16.1708 -16.0432 -15.8733
   -15.8664 -15.8101 -15.7397 -15.6763 -15.4683 -15.4629 -15.3432 -15.1752
   -15.1731 -15.1676 -15.1128 -15.0659 -12.7949 -12.5469 -12.3413 -12.3412
   -11.0699 -10.8645 -10.6455 -10.6453  -9.5132  -9.4027  -9.2327  -9.2287
    -8.7555  -8.7323  -8.7029  -8.6985  -8.4237  -8.3895  -8.3402  -8.3381
    -8.2294  -8.2183  -8.1282  -8.1259  -7.7533  -7.5052  -7.4913  -7.4870
    -7.1035  -7.0736  -6.9774  -6.9755  -6.3382  -6.3255  -6.2557  -6.1952
    -6.1693  -6.0871  -6.0605  -5.9306  -5.8574  -5.8272  -5.7938  -5.7789
    -5.6775  -5.6771  -5.6592  -5.6583  -5.5159  -5.4740  -5.4310  -5.3939
    -5.3892  -5.2496  -5.2417  -5.2203  -4.9924  -4.9828  -4.9827  -4.8781
    -4.7049  -4.6882  -4.6706  -4.6381  -4.5675  -4.5621  -4.5441  -4.5223
    -4.2848  -4.2634  -4.2612  -4.2252  -4.0255  -4.0089  -3.9773  -3.9612
    -3.9368  -3.8748  -3.8484  -3.8371  -3.8299  -3.7959  -3.7779  -3.7742
    -3.7021  -3.6759  -3.6339  -3.6094  -3.4673  -3.4607  -3.3956  -3.3727
    -3.3705  -3.1765  -3.1696  -3.1558  -0.8687  -0.8598  -0.8549  -0.7122
    -0.1316  -0.1213  -0.0270   0.0689   0.1396   0.1714   0.3426   0.3765
     0.4307   0.4804   0.5042   0.5336   0.5438   0.5989   0.7072   0.8357
     0.8708   0.8830   1.0211   1.0536   1.3388   1.3581   1.4832   1.6447
     1.7675   1.7697   1.7733

     the Fermi energy is    -2.0731 ev

!    total energy              =   -2852.81352340 Ry
     estimated scf accuracy    <       0.00000082 Ry
     smearing contrib. (-TS)   =      -0.00000009 Ry
     internal energy E=F+TS    =   -2852.81352331 Ry

     The total energy is F=E-TS. E is the sum of the following terms:
     one-electron contribution =  -16438.05192476 Ry
     hartree contribution      =    8265.80839628 Ry
     xc contribution           =    -557.22075746 Ry
     ewald contribution        =    5876.97023669 Ry
     Dispersion Correction     =      -0.31947406 Ry

     convergence has been achieved in  16 iterations

     negative rho (up, down):  3.041E-03 0.000E+00

     Forces acting on atoms (cartesian axes, Ry/au):

     atom    1 type  1   force =     0.00008714   -0.00002423   -0.00092364
     atom    2 type  1   force =     0.00000052    0.00001103   -0.00092768
     atom    3 type  1   force =    -0.00002255    0.00002155   -0.00092692
     atom    4 type  1   force =    -0.00002155   -0.00004239   -0.00091790
     atom    5 type  2   force =     0.00000089   -0.00000758   -0.00004751
     atom    6 type  2   force =     0.00000990   -0.00000563   -0.00003677
     atom    7 type  2   force =    -0.00000359   -0.00000207   -0.00003417
     atom    8 type  2   force =     0.00000042    0.00000109   -0.00003588
     atom    9 type  3   force =     0.00000246   -0.00000278    0.00013159
     atom   10 type  3   force =    -0.00000259   -0.00000007    0.00012742
     atom   11 type  3   force =    -0.00000022   -0.00000131    0.00012245
     atom   12 type  3   force =     0.00000282    0.00000226    0.00012788
     atom   13 type  3   force =    -0.00000003   -0.00000184    0.00014713
     atom   14 type  3   force =    -0.00000819    0.00000126    0.00014403
     atom   15 type  3   force =    -0.00000341    0.00000216    0.00014356
     atom   16 type  3   force =     0.00000457    0.00001091    0.00014590
     atom   17 type  4   force =    -0.00000206    0.00000277    0.00011247
     atom   18 type  4   force =    -0.00000154    0.00000078    0.00010972
     atom   19 type  4   force =    -0.00000282    0.00000270    0.00010440
     atom   20 type  4   force =     0.00000390    0.00000415    0.00010790
     atom   21 type  4   force =     0.00000028   -0.00001328    0.00010866
     atom   22 type  4   force =    -0.00000222   -0.00000614    0.00010404
     atom   23 type  4   force =    -0.00000428    0.00000183    0.00010770
     atom   24 type  4   force =    -0.00000125   -0.00000302    0.00010763
     atom   25 type  4   force =     0.00000661    0.00000169    0.00010670
     atom   26 type  4   force =     0.00000715   -0.00000408    0.00010602
     atom   27 type  4   force =     0.00000359   -0.00000151    0.00010162
     atom   28 type  4   force =     0.00000333   -0.00000332    0.00009847
     atom   29 type  4   force =    -0.00001336    0.00004823    0.00011204
     atom   30 type  4   force =    -0.00001041    0.00002562    0.00012670
     atom   31 type  4   force =    -0.00002934    0.00003420    0.00012169
     atom   32 type  4   force =    -0.00001788    0.00003248    0.00012076
     atom   33 type  4   force =     0.00003117   -0.00000201    0.00012184
     atom   34 type  4   force =     0.00002488    0.00000359    0.00012862
     atom   35 type  4   force =     0.00000985   -0.00000519    0.00013193
     atom   36 type  4   force =     0.00002588    0.00000722    0.00012898
     atom   37 type  4   force =    -0.00002801   -0.00002395    0.00011647
     atom   38 type  4   force =    -0.00001802   -0.00003121    0.00012429
     atom   39 type  4   force =    -0.00001217   -0.00002029    0.00012691
     atom   40 type  4   force =    -0.00001989   -0.00001359    0.00012493

     Total force =     0.001979     Total SCF correction =     0.001234
     SCF correction compared to forces is large: reduce conv_thr to get better values

     BFGS Geometry Optimization
     Energy error            =      0.0E+00 Ry
     Gradient error          =      9.3E-04 Ry/Bohr

     number of scf cycles    =   1
     number of bfgs steps    =   0

     energy             new  =   -2852.8135233999 Ry

     new trust radius        =       0.0009280623 bohr
     new conv_thr            =       0.0000010000 Ry


ATOMIC_POSITIONS (crystal)
Cu               0.3332295740        0.1667177431        0.5530351781
Cu               0.3332799658        0.6666942885        0.5530466297
Cu               0.8333056098        0.1666841284        0.5530445328
Cu               0.8333210499        0.6667512106        0.5530337750
In               0.9999467451        0.0000543507        0.4927237717
In               0.9999381533        0.5000555045        0.4927126755
In               0.4999512282        0.0000554755        0.4927115229
In               0.4999491629        0.5000446081        0.4927139730
P                0.1666131130        0.3333884389        0.4574372351
P                0.1666207302        0.8333915072        0.4574343851
P                0.6666190814        0.3333873619        0.4574284387
P                0.6666151249        0.8333824730        0.4574368635
P                0.1666088998        0.3333882517        0.5432824772
P                0.1666364007        0.8333883212        0.5432791119
P                0.6666178165        0.3333742982        0.5432722938
P                0.6666016887        0.8333595245        0.5432815729
S               -0.0001079544        0.1773553186        0.4373333311
S               -0.0001062426        0.6773651025        0.4373298550
S                0.4998976005        0.1773577732        0.4373224739
S                0.4998929393        0.6773541579        0.4373294034
S                0.8226543949        0.8227064496        0.4373312909
S                0.8226530521        0.3227037789        0.4373211208
S                0.3226489232        0.8226988528        0.4373250786
S                0.3226411606        0.3226893925        0.4373326960
S                0.1773061134        1.0001147052        0.4373351642
S                0.1773111804        0.5001153187        0.4373344949
S                0.6773188015        1.0001139951        0.4373370487
S                0.6773148646        0.5001163319        0.4373303163
S                0.8356369146        0.9874396022        0.5671940800
S                0.8356426753        0.4874869952        0.5671745683
S                0.3356631148        0.9875019883        0.5671739403
S                0.3356512813        0.4874663097        0.5671865436
S                0.1516464837        0.1643460236        0.5671898002
S                0.1516885642        0.6643480247        0.5671778961
S                0.6517100577        0.1643489370        0.5671696835
S                0.6516873080        0.6643297004        0.5671740050
S                0.0125490712        0.8483324644        0.5671886576
S                0.0125099279        0.3483208741        0.5671796635
S                0.5125081329        0.8483016120        0.5671803164
S                0.5125072911        0.3482888049        0.5671741347



     Writing config-only to output data dir ./test.save/ :
     XML data file
     NEW-OLD atomic charge density approx. for the potential

     negative rho (up, down):  3.041E-03 0.000E+00

     total cpu time spent up to now is      112.4 secs

     per-process dynamical memory:    83.8 Mb

     Self-consistent Calculation

     iteration #  1     ecut=    40.00 Ry     beta= 0.12
     Davidson diagonalization with overlap
     ethr =  1.00E-06,  avg # of iterations =  3.0

     Threshold (ethr) on eigenvalues was too large:
     Diagonalizing with lowered threshold

     Davidson diagonalization with overlap
     ethr =  4.95E-09,  avg # of iterations =  4.0

     negative rho (up, down):  3.041E-03 0.000E+00

     total cpu time spent up to now is      123.7 secs

     total energy              =   -2852.81352668 Ry
     estimated scf accuracy    <       0.00002197 Ry

     iteration #  2     ecut=    40.00 Ry     beta= 0.12
     Davidson diagonalization with overlap
     ethr =  7.04E-09,  avg # of iterations =  2.0

     negative rho (up, down):  3.041E-03 0.000E+00

     total cpu time spent up to now is      128.6 secs

     total energy              =   -2852.81352679 Ry
     estimated scf accuracy    <       0.00000393 Ry

     iteration #  3     ecut=    40.00 Ry     beta= 0.12
     Davidson diagonalization with overlap
     ethr =  1.26E-09,  avg # of iterations =  4.0

     negative rho (up, down):  3.041E-03 0.000E+00

     total cpu time spent up to now is      134.7 secs

     total energy              =   -2852.81352724 Ry
     estimated scf accuracy    <       0.00000152 Ry

     iteration #  4     ecut=    40.00 Ry     beta= 0.12
     Davidson diagonalization with overlap
     ethr =  4.86E-10,  avg # of iterations =  4.4

     negative rho (up, down):  3.041E-03 0.000E+00

     total cpu time spent up to now is      141.4 secs

     total energy              =   -2852.81352753 Ry
     estimated scf accuracy    <       0.00000485 Ry

     iteration #  5     ecut=    40.00 Ry     beta= 0.12
     Davidson diagonalization with overlap
     ethr =  4.86E-10,  avg # of iterations =  3.4

     negative rho (up, down):  3.042E-03 0.000E+00

     total cpu time spent up to now is      147.0 secs

     End of self-consistent calculation

          k = 0.1250 0.2165-0.2308 ( 96096 PWs)   bands (ev):

  -114.1690-114.1689-114.1689-114.1689 -71.6413 -71.6412 -71.6412 -71.6412
   -71.6412 -71.6411 -71.6410 -71.6410 -71.4688 -71.4687 -71.4687 -71.4687
   -18.7048 -18.5693 -18.5691 -18.5503 -17.7472 -17.7470 -17.7440 -17.7161
   -17.3195 -17.2950 -17.2872 -17.2867 -17.2864 -17.0707 -17.0698 -17.0478
   -17.0304 -17.0302 -17.0300 -17.0296 -17.0296 -17.0184 -17.0184 -17.0165
   -16.9986 -16.9352 -16.9348 -16.9002 -16.2249 -16.1823 -16.1793 -15.8354
   -15.7873 -15.7809 -15.6884 -15.6412 -15.4996 -15.4609 -15.4549 -15.1673
   -15.1441 -15.1420 -15.0789 -15.0404 -12.9343 -12.4020 -12.4020 -12.3287
   -11.1710 -10.7265 -10.7264 -10.6424  -9.5683  -9.3320  -9.3302  -9.2651
    -8.7029  -8.6810  -8.6218  -8.6189  -8.5024  -8.3882  -8.3404  -8.3135
    -8.1139  -8.0820  -8.0774  -8.0455  -7.8826  -7.5062  -7.4167  -7.3983
    -7.1772  -7.1578  -7.1388  -7.1304  -6.3956  -6.3918  -6.3766  -6.1800
    -6.1635  -6.1387  -6.0662  -5.8639  -5.8486  -5.8389  -5.8377  -5.7828
    -5.7212  -5.6483  -5.6448  -5.6376  -5.4528  -5.4348  -5.4317  -5.4088
    -5.4050  -5.1843  -5.1641  -5.1437  -5.0090  -5.0042  -4.9998  -4.8304
    -4.7429  -4.7275  -4.7007  -4.6720  -4.6325  -4.6027  -4.5948  -4.5857
    -4.2701  -4.2549  -4.2472  -4.0897  -4.0822  -4.0552  -4.0490  -3.9545
    -3.8788  -3.8762  -3.8694  -3.8372  -3.8326  -3.7808  -3.7806  -3.7325
    -3.7230  -3.6763  -3.6721  -3.6232  -3.4304  -3.3870  -3.3767  -3.2714
    -3.2698  -3.1574  -3.1457  -3.0251  -1.0779  -0.8527  -0.7653  -0.7628
    -0.1568  -0.0711   0.0323   0.0557   0.1186   0.2229   0.2359   0.3009
     0.4009   0.4036   0.5053   0.5476   0.5585   0.5636   0.5798   0.8685
     0.9156   0.9911   1.0246   1.0897   1.3160   1.3764   1.3877   1.7192
     1.8285   1.8321   1.8449

          k = 0.1250 0.5052-0.2308 ( 96082 PWs)   bands (ev):

  -114.1690-114.1689-114.1689-114.1689 -71.6413 -71.6412 -71.6412 -71.6412
   -71.6412 -71.6411 -71.6410 -71.6410 -71.4688 -71.4687 -71.4687 -71.4687
   -18.6551 -18.6234 -18.5773 -18.5439 -17.7409 -17.7401 -17.7351 -17.7334
   -17.3215 -17.3112 -17.3103 -17.3044 -17.1929 -17.1388 -17.0665 -17.0352
   -17.0294 -17.0291 -17.0285 -17.0283 -17.0271 -17.0245 -17.0206 -17.0172
   -16.9903 -16.9795 -16.9391 -16.8724 -16.1900 -16.1094 -15.9909 -15.9265
   -15.8741 -15.8372 -15.7322 -15.7020 -15.4851 -15.4158 -15.3090 -15.2183
   -15.1999 -15.1535 -15.1033 -15.0812 -12.7173 -12.5934 -12.4149 -12.2852
   -11.0086 -10.9040 -10.7251 -10.5747  -9.4782  -9.4194  -9.2894  -9.1419
    -8.7717  -8.7706  -8.7374  -8.6784  -8.4139  -8.3819  -8.3315  -8.3239
    -8.3128  -8.2280  -8.1640  -8.1635  -7.6711  -7.5916  -7.5446  -7.4316
    -7.0709  -7.0377  -6.9525  -6.9295  -6.3207  -6.2752  -6.2024  -6.1948
    -6.1681  -6.0988  -6.0534  -5.9916  -5.8401  -5.8268  -5.7821  -5.7675
    -5.7044  -5.6563  -5.6504  -5.6429  -5.5194  -5.5179  -5.4100  -5.4035
    -5.3810  -5.2875  -5.2724  -5.2717  -4.9872  -4.9694  -4.9515  -4.8832
    -4.7031  -4.6734  -4.6520  -4.6264  -4.5548  -4.5419  -4.5165  -4.5160
    -4.3077  -4.3033  -4.2913  -4.2521  -4.0129  -3.9844  -3.9728  -3.9701
    -3.9302  -3.8777  -3.8544  -3.8446  -3.8441  -3.8274  -3.7811  -3.7129
    -3.6839  -3.6642  -3.6551  -3.5750  -3.5048  -3.4846  -3.4224  -3.4186
    -3.3479  -3.2621  -3.1981  -3.0824  -0.9112  -0.8119  -0.8023  -0.7356
    -0.2325  -0.0745   0.0026   0.0330   0.0492   0.2739   0.3221   0.4278
     0.4867   0.4886   0.4915   0.5263   0.5440   0.6195   0.7160   0.7858
     0.8244   0.9395   0.9973   1.0657   1.2554   1.4723   1.5615   1.6315
     1.7684   1.7806   1.8153

          k = 0.1250-0.3608-0.2308 ( 96078 PWs)   bands (ev):

  -114.1690-114.1689-114.1689-114.1689 -71.6413 -71.6412 -71.6412 -71.6412
   -71.6412 -71.6411 -71.6410 -71.6410 -71.4688 -71.4687 -71.4687 -71.4687
   -18.6836 -18.5930 -18.5744 -18.5461 -17.7447 -17.7435 -17.7389 -17.7247
   -17.3165 -17.3108 -17.3013 -17.2948 -17.2451 -17.0967 -17.0678 -17.0393
   -17.0299 -17.0295 -17.0291 -17.0289 -17.0289 -17.0212 -17.0197 -17.0167
   -16.9958 -16.9603 -16.9377 -16.8835 -16.2069 -16.1440 -16.0950 -15.8895
   -15.8052 -15.7700 -15.7676 -15.6669 -15.4911 -15.4379 -15.3864 -15.1869
   -15.1460 -15.1413 -15.1282 -15.0570 -12.8376 -12.4834 -12.4114 -12.3015
   -11.1019 -10.8045 -10.7275 -10.6010  -9.5304  -9.3680  -9.3078  -9.2000
    -8.7549  -8.7397  -8.6832  -8.6100  -8.4654  -8.4426  -8.3414  -8.3097
    -8.2084  -8.1570  -8.1236  -8.1146  -7.7909  -7.5640  -7.4512  -7.4144
    -7.1167  -7.0948  -7.0166  -7.0146  -6.3539  -6.3146  -6.3066  -6.2020
    -6.1363  -6.1351  -6.0520  -5.9022  -5.8692  -5.8187  -5.8174  -5.7755
    -5.6924  -5.6640  -5.6524  -5.6478  -5.4848  -5.4642  -5.4205  -5.4193
    -5.4147  -5.2377  -5.2276  -5.1947  -4.9980  -4.9864  -4.9847  -4.8603
    -4.7277  -4.7244  -4.6499  -4.6364  -4.5875  -4.5671  -4.5618  -4.5404
    -4.2772  -4.2582  -4.2446  -4.1684  -4.0546  -4.0420  -3.9839  -3.9569
    -3.9182  -3.9080  -3.8548  -3.8373  -3.8347  -3.7979  -3.7704  -3.7610
    -3.6900  -3.6883  -3.6547  -3.6136  -3.4802  -3.4163  -3.3882  -3.3390
    -3.3230  -3.2805  -3.1075  -3.1027  -0.9245  -0.8938  -0.7839  -0.7299
    -0.1687  -0.0623  -0.0072   0.0423   0.0685   0.2790   0.3087   0.3629
     0.4321   0.4976   0.5055   0.5189   0.5503   0.5765   0.5879   0.8131
     0.9023   0.9411   1.0363   1.0547   1.2947   1.4066   1.4623   1.6802
     1.7677   1.7702   1.7953

          k = 0.1250-0.0722-0.2308 ( 96030 PWs)   bands (ev):

  -114.1690-114.1689-114.1689-114.1689 -71.6413 -71.6412 -71.6412 -71.6412
   -71.6411 -71.6411 -71.6410 -71.6410 -71.4688 -71.4687 -71.4687 -71.4687
   -18.7161 -18.5627 -18.5561 -18.5560 -17.7490 -17.7481 -17.7479 -17.7106
   -17.3210 -17.3097 -17.2816 -17.2813 -17.2781 -17.0678 -17.0592 -17.0589
   -17.0306 -17.0305 -17.0303 -17.0302 -17.0300 -17.0173 -17.0166 -17.0166
   -16.9998 -16.9284 -16.9168 -16.9165 -16.2281 -16.2270 -16.2121 -15.7948
   -15.7922 -15.7758 -15.6438 -15.6273 -15.4984 -15.4959 -15.4818 -15.1520
   -15.1513 -15.1435 -15.0445 -15.0314 -12.9888 -12.3845 -12.3588 -12.3588
   -11.2076 -10.7131 -10.6838 -10.6837  -9.5880  -9.3355  -9.3140  -9.3132
    -8.6571  -8.6412  -8.6291  -8.5769  -8.5358  -8.3371  -8.3230  -8.3141
    -8.0540  -8.0514  -8.0397  -7.9917  -7.9316  -7.4325  -7.4242  -7.3899
    -7.2323  -7.2279  -7.2205  -7.2076  -6.4272  -6.4245  -6.4222  -6.1697
    -6.1603  -6.1545  -6.0924  -5.8612  -5.8555  -5.8517  -5.8114  -5.7732
    -5.7461  -5.6400  -5.6400  -5.6379  -5.4362  -5.4266  -5.4209  -5.3994
    -5.3851  -5.1476  -5.1401  -5.1313  -5.0012  -4.9950  -4.9949  -4.8007
    -4.7396  -4.7297  -4.7209  -4.7114  -4.6538  -4.6448  -4.6394  -4.6214
    -4.2741  -4.2692  -4.2656  -4.1100  -4.1005  -4.0986  -4.0058  -3.9454
    -3.9137  -3.8628  -3.8466  -3.8429  -3.7926  -3.7889  -3.7883  -3.7241
    -3.7102  -3.7038  -3.6295  -3.5852  -3.3918  -3.3870  -3.3740  -3.2419
    -3.1960  -3.1950  -3.0347  -2.9839  -1.1933  -0.8050  -0.8037  -0.7691
    -0.2328   0.0149   0.0251   0.0762   0.1257   0.1301   0.1467   0.3472
     0.3502   0.3826   0.5449   0.5485   0.5645   0.5701   0.5775   0.8605
     0.9933   1.0074   1.0291   1.0977   1.3407   1.3442   1.3669   1.7570
     1.8792   1.9047   1.9052

          k = 0.3750 0.6495-0.2308 ( 96124 PWs)   bands (ev):

  -114.1690-114.1689-114.1689-114.1689 -71.6413 -71.6412 -71.6412 -71.6412
   -71.6412 -71.6411 -71.6410 -71.6410 -71.4688 -71.4687 -71.4687 -71.4687
   -18.6305 -18.6304 -18.6031 -18.5368 -17.7406 -17.7380 -17.7379 -17.7318
   -17.3281 -17.3106 -17.3103 -17.3102 -17.1471 -17.1466 -17.1007 -17.0299
   -17.0290 -17.0289 -17.0285 -17.0285 -17.0254 -17.0253 -17.0231 -17.0165
   -16.9824 -16.9823 -16.9665 -16.8510 -16.1950 -16.0344 -15.9644 -15.9540
   -15.9520 -15.7886 -15.7422 -15.7388 -15.4919 -15.3556 -15.2881 -15.2848
   -15.2167 -15.1260 -15.1014 -15.0995 -12.6179 -12.6178 -12.5118 -12.2539
   -10.9230 -10.9228 -10.8234 -10.5333  -9.4256  -9.4253  -9.3587  -9.0780
    -8.7959  -8.7805  -8.7746  -8.5963  -8.5129  -8.3770  -8.3270  -8.3156
    -8.2842  -8.2425  -8.2112  -8.2087  -7.6585  -7.5612  -7.5600  -7.4610
    -7.0544  -6.9795  -6.9353  -6.9217  -6.2613  -6.2286  -6.1930  -6.1730
    -6.1724  -6.1185  -6.0657  -6.0511  -5.8470  -5.7935  -5.7817  -5.7644
    -5.7294  -5.6324  -5.6284  -5.6186  -5.5229  -5.5046  -5.4727  -5.3761
    -5.3585  -5.3483  -5.3241  -5.3057  -4.9894  -4.9320  -4.9083  -4.8967
[...]
    -8.0541  -8.0515  -8.0398  -7.9916  -7.9315  -7.4323  -7.4241  -7.3898
    -7.2325  -7.2279  -7.2208  -7.2076  -6.4272  -6.4245  -6.4222  -6.1697
    -6.1605  -6.1546  -6.0923  -5.8610  -5.8556  -5.8516  -5.8113  -5.7731
    -5.7459  -5.6400  -5.6398  -5.6378  -5.4362  -5.4264  -5.4207  -5.3992
    -5.3849  -5.1476  -5.1399  -5.1313  -5.0010  -4.9948  -4.9947  -4.8005
    -4.7393  -4.7294  -4.7205  -4.7110  -4.6536  -4.6443  -4.6389  -4.6209
    -4.2737  -4.2687  -4.2652  -4.1092  -4.0995  -4.0978  -4.0049  -3.9447
    -3.9130  -3.8622  -3.8460  -3.8422  -3.7921  -3.7884  -3.7877  -3.7236
    -3.7098  -3.7034  -3.6293  -3.5848  -3.3914  -3.3867  -3.3737  -3.2414
    -3.1956  -3.1948  -3.0343  -2.9835  -1.1934  -0.8050  -0.8038  -0.7691
    -0.2328   0.0149   0.0250   0.0761   0.1256   0.1301   0.1465   0.3473
     0.3504   0.3826   0.5448   0.5486   0.5644   0.5700   0.5774   0.8604
     0.9933   1.0074   1.0290   1.0979   1.3405   1.3442   1.3670   1.7571
     1.8794   1.9050   1.9054

          k = 0.0000-0.1443-0.2308 ( 96030 PWs)   bands (ev):

  -114.1675-114.1674-114.1674-114.1673 -71.6398 -71.6398 -71.6398 -71.6397
   -71.6397 -71.6396 -71.6396 -71.6396 -71.4673 -71.4673 -71.4673 -71.4672
   -18.7162 -18.5629 -18.5562 -18.5562 -17.7491 -17.7481 -17.7480 -17.7106
   -17.3210 -17.3097 -17.2817 -17.2813 -17.2782 -17.0679 -17.0593 -17.0590
   -17.0307 -17.0306 -17.0303 -17.0303 -17.0301 -17.0174 -17.0167 -17.0167
   -16.9999 -16.9285 -16.9169 -16.9167 -16.2283 -16.2271 -16.2124 -15.7951
   -15.7924 -15.7760 -15.6441 -15.6275 -15.4983 -15.4958 -15.4817 -15.1520
   -15.1512 -15.1434 -15.0445 -15.0313 -12.9889 -12.3846 -12.3589 -12.3589
   -11.2076 -10.7132 -10.6838 -10.6838  -9.5881  -9.3355  -9.3141  -9.3134
    -8.6573  -8.6414  -8.6294  -8.5772  -8.5361  -8.3373  -8.3232  -8.3143
    -8.0542  -8.0515  -8.0398  -7.9915  -7.9316  -7.4324  -7.4241  -7.3898
    -7.2325  -7.2278  -7.2207  -7.2078  -6.4272  -6.4245  -6.4222  -6.1697
    -6.1605  -6.1547  -6.0923  -5.8610  -5.8555  -5.8517  -5.8113  -5.7730
    -5.7460  -5.6400  -5.6399  -5.6377  -5.4361  -5.4265  -5.4206  -5.3993
    -5.3849  -5.1475  -5.1400  -5.1313  -5.0010  -4.9948  -4.9948  -4.8005
    -4.7393  -4.7295  -4.7205  -4.7111  -4.6535  -4.6443  -4.6389  -4.6209
    -4.2737  -4.2687  -4.2652  -4.1091  -4.0995  -4.0978  -4.0049  -3.9447
    -3.9130  -3.8622  -3.8460  -3.8422  -3.7921  -3.7883  -3.7878  -3.7236
    -3.7098  -3.7034  -3.6293  -3.5848  -3.3914  -3.3866  -3.3737  -3.2414
    -3.1957  -3.1947  -3.0343  -2.9835  -1.1934  -0.8050  -0.8037  -0.7692
    -0.2328   0.0148   0.0250   0.0762   0.1255   0.1300   0.1466   0.3473
     0.3504   0.3827   0.5448   0.5485   0.5644   0.5700   0.5775   0.8604
     0.9933   1.0073   1.0290   1.0979   1.3405   1.3443   1.3669   1.7572
     1.8794   1.9050   1.9056

          k =-0.3750 0.6495 0.2308 ( 96124 PWs)   bands (ev):

  -114.1675-114.1674-114.1674-114.1673 -71.6398 -71.6398 -71.6398 -71.6397
   -71.6397 -71.6397 -71.6396 -71.6396 -71.4673 -71.4673 -71.4673 -71.4672
   -18.6307 -18.6305 -18.6033 -18.5369 -17.7406 -17.7381 -17.7380 -17.7319
   -17.3281 -17.3107 -17.3104 -17.3103 -17.1472 -17.1467 -17.1007 -17.0300
   -17.0291 -17.0290 -17.0286 -17.0286 -17.0255 -17.0254 -17.0232 -17.0166
   -16.9825 -16.9824 -16.9666 -16.8511 -16.1953 -16.0347 -15.9646 -15.9543
   -15.9522 -15.7888 -15.7425 -15.7390 -15.4918 -15.3555 -15.2881 -15.2847
   -15.2166 -15.1259 -15.1013 -15.0994 -12.6180 -12.6179 -12.5120 -12.2541
   -10.9230 -10.9228 -10.8234 -10.5333  -9.4258  -9.4253  -9.3589  -9.0782
    -8.7961  -8.7808  -8.7749  -8.5964  -8.5131  -8.3770  -8.3272  -8.3159
    -8.2842  -8.2426  -8.2111  -8.2087  -7.6584  -7.5611  -7.5599  -7.4608
    -7.0544  -6.9796  -6.9355  -6.9219  -6.2613  -6.2287  -6.1929  -6.1730
    -6.1723  -6.1186  -6.0658  -6.0511  -5.8471  -5.7935  -5.7815  -5.7643
    -5.7292  -5.6325  -5.6285  -5.6188  -5.5227  -5.5044  -5.4726  -5.3760
    -5.3583  -5.3481  -5.3239  -5.3055  -4.9892  -4.9320  -4.9081  -4.8964
    -4.7036  -4.6801  -4.6645  -4.5843  -4.5367  -4.5240  -4.5150  -4.5072
    -4.3224  -4.3166  -4.3140  -4.2769  -4.0081  -3.9943  -3.9902  -3.9761
    -3.9055  -3.8963  -3.8835  -3.8249  -3.8201  -3.8024  -3.7933  -3.6967
    -3.6713  -3.6539  -3.6244  -3.5949  -3.5467  -3.5380  -3.4713  -3.3893
    -3.3023  -3.2755  -3.2485  -3.0251  -0.9378  -0.7746  -0.7679  -0.7666
    -0.3046  -0.0430  -0.0190   0.0054   0.0127   0.2895   0.4102   0.4549
     0.4748   0.4753   0.5045   0.5379   0.5624   0.6293   0.6500   0.7521
     0.7850   0.9996   1.0229   1.0511   1.1891   1.6159   1.6640   1.6765
     1.7433   1.7598   1.7634

          k = 0.7500 0.0000-0.2308 ( 96124 PWs)   bands (ev):

  -114.1675-114.1674-114.1674-114.1673 -71.6398 -71.6398 -71.6398 -71.6397
   -71.6397 -71.6396 -71.6396 -71.6396 -71.4673 -71.4673 -71.4673 -71.4672
   -18.6306 -18.6306 -18.6033 -18.5369 -17.7406 -17.7380 -17.7380 -17.7319
   -17.3281 -17.3107 -17.3104 -17.3103 -17.1472 -17.1467 -17.1007 -17.0300
   -17.0291 -17.0290 -17.0286 -17.0286 -17.0255 -17.0254 -17.0232 -17.0166
   -16.9824 -16.9824 -16.9666 -16.8511 -16.1953 -16.0346 -15.9646 -15.9543
   -15.9522 -15.7888 -15.7424 -15.7390 -15.4918 -15.3555 -15.2881 -15.2847
   -15.2166 -15.1259 -15.1013 -15.0994 -12.6180 -12.6179 -12.5120 -12.2541
   -10.9230 -10.9229 -10.8234 -10.5333  -9.4257  -9.4254  -9.3589  -9.0782
    -8.7962  -8.7807  -8.7749  -8.5965  -8.5131  -8.3770  -8.3272  -8.3159
    -8.2842  -8.2426  -8.2111  -8.2087  -7.6584  -7.5611  -7.5599  -7.4608
    -7.0544  -6.9796  -6.9354  -6.9219  -6.2612  -6.2287  -6.1929  -6.1730
    -6.1724  -6.1186  -6.0657  -6.0511  -5.8470  -5.7934  -5.7816  -5.7644
    -5.7292  -5.6324  -5.6285  -5.6188  -5.5228  -5.5044  -5.4726  -5.3760
    -5.3583  -5.3480  -5.3239  -5.3055  -4.9892  -4.9319  -4.9082  -4.8965
    -4.7036  -4.6801  -4.6645  -4.5843  -4.5367  -4.5240  -4.5150  -4.5072
    -4.3225  -4.3166  -4.3140  -4.2769  -4.0081  -3.9942  -3.9902  -3.9761
    -3.9056  -3.8963  -3.8835  -3.8250  -3.8201  -3.8024  -3.7932  -3.6967
    -3.6714  -3.6539  -3.6245  -3.5949  -3.5466  -3.5380  -3.4713  -3.3894
    -3.3024  -3.2755  -3.2485  -3.0251  -0.9378  -0.7745  -0.7679  -0.7667
    -0.3046  -0.0430  -0.0190   0.0054   0.0128   0.2894   0.4102   0.4550
     0.4748   0.4753   0.5045   0.5379   0.5625   0.6293   0.6499   0.7521
     0.7851   0.9996   1.0230   1.0510   1.1891   1.6160   1.6641   1.6764
     1.7434   1.7597   1.7633

          k =-0.3750-0.2165 0.2308 ( 96096 PWs)   bands (ev):

  -114.1675-114.1674-114.1674-114.1673 -71.6398 -71.6398 -71.6398 -71.6397
   -71.6397 -71.6397 -71.6396 -71.6396 -71.4673 -71.4673 -71.4673 -71.4672
   -18.6738 -18.6104 -18.5574 -18.5572 -17.7432 -17.7400 -17.7398 -17.7282
   -17.3137 -17.3112 -17.3106 -17.2970 -17.2275 -17.1222 -17.0478 -17.0471
   -17.0298 -17.0293 -17.0288 -17.0287 -17.0284 -17.0231 -17.0184 -17.0183
   -16.9942 -16.9730 -16.9063 -16.9057 -16.1749 -16.1707 -16.0430 -15.8732
   -15.8664 -15.8100 -15.7397 -15.6763 -15.4684 -15.4630 -15.3433 -15.1753
   -15.1732 -15.1677 -15.1129 -15.0660 -12.7950 -12.5470 -12.3414 -12.3413
   -11.0701 -10.8647 -10.6457 -10.6455  -9.5133  -9.4028  -9.2328  -9.2286
    -8.7556  -8.7323  -8.7030  -8.6985  -8.4236  -8.3896  -8.3402  -8.3382
    -8.2294  -8.2184  -8.1284  -8.1260  -7.7535  -7.5053  -7.4914  -7.4872
    -7.1036  -7.0735  -6.9773  -6.9755  -6.3381  -6.3254  -6.2556  -6.1952
    -6.1693  -6.0869  -6.0605  -5.9305  -5.8575  -5.8272  -5.7937  -5.7789
    -5.6774  -5.6768  -5.6591  -5.6583  -5.5159  -5.4740  -5.4310  -5.3939
    -5.3893  -5.2496  -5.2418  -5.2203  -4.9926  -4.9829  -4.9828  -4.8782
    -4.7051  -4.6884  -4.6708  -4.6382  -4.5676  -4.5622  -4.5441  -4.5224
    -4.2849  -4.2635  -4.2613  -4.2254  -4.0256  -4.0090  -3.9774  -3.9612
    -3.9368  -3.8748  -3.8485  -3.8370  -3.8298  -3.7958  -3.7779  -3.7742
    -3.7022  -3.6758  -3.6337  -3.6095  -3.4672  -3.4607  -3.3955  -3.3726
    -3.3705  -3.1763  -3.1695  -3.1557  -0.8686  -0.8599  -0.8550  -0.7121
    -0.1316  -0.1213  -0.0271   0.0688   0.1396   0.1713   0.3428   0.3766
     0.4307   0.4802   0.5040   0.5336   0.5437   0.5990   0.7070   0.8356
     0.8708   0.8828   1.0211   1.0535   1.3387   1.3580   1.4830   1.6447
     1.7675   1.7700   1.8515

          k = 0.0000-0.4330-0.2308 ( 96096 PWs)   bands (ev):

  -114.1675-114.1674-114.1674-114.1673 -71.6398 -71.6398 -71.6398 -71.6397
   -71.6397 -71.6396 -71.6396 -71.6396 -71.4673 -71.4673 -71.4673 -71.4672
   -18.6738 -18.6104 -18.5573 -18.5573 -17.7432 -17.7400 -17.7399 -17.7282
   -17.3137 -17.3112 -17.3105 -17.2971 -17.2275 -17.1222 -17.0478 -17.0471
   -17.0298 -17.0293 -17.0288 -17.0287 -17.0284 -17.0231 -17.0184 -17.0183
   -16.9942 -16.9730 -16.9063 -16.9057 -16.1748 -16.1707 -16.0431 -15.8732
   -15.8664 -15.8100 -15.7397 -15.6762 -15.4684 -15.4630 -15.3433 -15.1753
   -15.1732 -15.1677 -15.1129 -15.0660 -12.7950 -12.5470 -12.3414 -12.3413
   -11.0701 -10.8647 -10.6457 -10.6454  -9.5133  -9.4028  -9.2327  -9.2287
    -8.7555  -8.7323  -8.7029  -8.6985  -8.4237  -8.3896  -8.3403  -8.3382
    -8.2294  -8.2184  -8.1284  -8.1259  -7.7535  -7.5054  -7.4915  -7.4872
    -7.1035  -7.0735  -6.9773  -6.9754  -6.3381  -6.3254  -6.2556  -6.1951
    -6.1693  -6.0870  -6.0605  -5.9305  -5.8574  -5.8272  -5.7938  -5.7789
    -5.6774  -5.6769  -5.6591  -5.6582  -5.5159  -5.4741  -5.4310  -5.3939
    -5.3892  -5.2495  -5.2418  -5.2203  -4.9925  -4.9829  -4.9828  -4.8782
    -4.7051  -4.6883  -4.6708  -4.6383  -4.5676  -4.5622  -4.5441  -4.5224
    -4.2849  -4.2635  -4.2613  -4.2254  -4.0256  -4.0090  -3.9774  -3.9612
    -3.9368  -3.8748  -3.8485  -3.8371  -3.8299  -3.7958  -3.7780  -3.7742
    -3.7022  -3.6758  -3.6338  -3.6094  -3.4672  -3.4607  -3.3956  -3.3726
    -3.3704  -3.1764  -3.1694  -3.1557  -0.8686  -0.8598  -0.8549  -0.7122
    -0.1316  -0.1213  -0.0271   0.0689   0.1395   0.1713   0.3427   0.3766
     0.4307   0.4802   0.5040   0.5336   0.5437   0.5989   0.7071   0.8356
     0.8708   0.8829   1.0211   1.0535   1.3387   1.3580   1.4830   1.6446
     1.7674   1.7694   1.7729

     the Fermi energy is    -2.0730 ev

!    total energy              =   -2852.81352654 Ry
     estimated scf accuracy    <       0.00000024 Ry
     smearing contrib. (-TS)   =      -0.00000009 Ry
     internal energy E=F+TS    =   -2852.81352645 Ry

     The total energy is F=E-TS. E is the sum of the following terms:
     one-electron contribution =  -16438.33525186 Ry
     hartree contribution      =    8265.95665803 Ry
     xc contribution           =    -557.22218394 Ry
     ewald contribution        =    5877.10674078 Ry
     Dispersion Correction     =      -0.31948947 Ry

     convergence has been achieved in   3 iterations

     negative rho (up, down):  3.042E-03 0.000E+00

     Forces acting on atoms (cartesian axes, Ry/au):

     atom    1 type  1   force =     0.00009170   -0.00002469   -0.00092901
     atom    2 type  1   force =    -0.00000090    0.00000903   -0.00093783
     atom    3 type  1   force =    -0.00002942    0.00002482   -0.00093501
     atom    4 type  1   force =    -0.00002299   -0.00004509   -0.00092717
     atom    5 type  2   force =     0.00000091   -0.00000701    0.00012895
     atom    6 type  2   force =     0.00000880   -0.00000490    0.00014030
     atom    7 type  2   force =    -0.00000334   -0.00000144    0.00014234
     atom    8 type  2   force =     0.00000116    0.00000257    0.00014036
     atom    9 type  3   force =     0.00000224   -0.00000236    0.00012319
     atom   10 type  3   force =    -0.00000225   -0.00000015    0.00011976
     atom   11 type  3   force =    -0.00000025   -0.00000100    0.00011577
     atom   12 type  3   force =     0.00000238    0.00000207    0.00012016
     atom   13 type  3   force =    -0.00000048    0.00000023    0.00011177
     atom   14 type  3   force =    -0.00000657    0.00000243    0.00010923
     atom   15 type  3   force =    -0.00000319    0.00000261    0.00010886
     atom   16 type  3   force =     0.00000323    0.00000946    0.00011043
     atom   17 type  4   force =    -0.00000301    0.00000439    0.00011542
     atom   18 type  4   force =    -0.00000189    0.00000240    0.00011308
     atom   19 type  4   force =    -0.00000288    0.00000394    0.00010858
     atom   20 type  4   force =     0.00000235    0.00000578    0.00011164
     atom   21 type  4   force =    -0.00000101   -0.00001338    0.00011222
     atom   22 type  4   force =    -0.00000304   -0.00000679    0.00010847
     atom   23 type  4   force =    -0.00000506   -0.00000040    0.00011106
     atom   24 type  4   force =    -0.00000207   -0.00000438    0.00011147
     atom   25 type  4   force =     0.00000777    0.00000145    0.00011012
     atom   26 type  4   force =     0.00000838   -0.00000381    0.00010980
     atom   27 type  4   force =     0.00000486   -0.00000176    0.00010588
     atom   28 type  4   force =     0.00000458   -0.00000331    0.00010303
     atom   29 type  4   force =    -0.00002487    0.00005019    0.00006786
     atom   30 type  4   force =    -0.00002453    0.00003313    0.00007973
     atom   31 type  4   force =    -0.00004064    0.00003929    0.00007616
     atom   32 type  4   force =    -0.00003031    0.00003792    0.00007573
     atom   33 type  4   force =     0.00004090    0.00000504    0.00007774
     atom   34 type  4   force =     0.00003828    0.00001095    0.00008248
     atom   35 type  4   force =     0.00002771    0.00000403    0.00008473
     atom   36 type  4   force =     0.00004040    0.00001533    0.00008286
     atom   37 type  4   force =    -0.00002653   -0.00003739    0.00007200
     atom   38 type  4   force =    -0.00001720   -0.00004406    0.00007876
     atom   39 type  4   force =    -0.00001314   -0.00003543    0.00008051
     atom   40 type  4   force =    -0.00002007   -0.00002970    0.00007855

     Total force =     0.001979     Total SCF correction =     0.000337
     SCF correction compared to forces is large: reduce conv_thr to get better values
     Message from routine bfgs:
     history already reset at previous step: exiting
     Energy error            =      9.4E-07 Ry
     Gradient error          =      9.4E-04 Ry/Bohr

     bfgs failed after   5 scf cycles and   2 bfgs steps, convergence not achieved
     (criteria: energy <  1.0E-07 Ry, force <  2.0E-06 Ry/Bohr)

     End of BFGS Geometry Optimization

     Final energy             =   -2852.8135265430 Ry

     File ./test.bfgs deleted, as requested
Begin final coordinates

ATOMIC_POSITIONS (crystal)
Cu               0.3332258939        0.1667192410        0.5530409303
Cu               0.3332795670        0.6666935818        0.5530523320
Cu               0.8333059078        0.1666829396        0.5530502091
Cu               0.8333233597        0.6667534679        0.5530393399
In               0.9999467544        0.0000540498        0.4927259468
In               0.9999383962        0.5000552477        0.4927149459
In               0.4999511859        0.0000553418        0.4927138184
In               0.4999493020        0.5000446142        0.4927162401
P                0.1666132148        0.3333882110        0.4574371610
P                0.1666206756        0.8333913884        0.4574342339
P                0.6666191016        0.3333872118        0.4574281947
P                0.6666153443        0.8333824848        0.4574367211
P                0.1666089504        0.3333879830        0.5432822195
P                0.1666360261        0.8333882431        0.5432787852
P                0.6666178077        0.3333743171        0.5432719655
P                0.6666022451        0.8333600109        0.5432812768
S               -0.0001082042        0.1773555895        0.4373326281
S               -0.0001064877        0.6773652626        0.4373291048
S                0.4998973379        0.1773580277        0.4373216292
S                0.4998929804        0.6773544981        0.4373286219
S                0.8226539031        0.8227052056        0.4373305151
S                0.8226526437        0.3227028835        0.4373202672
S                0.3226486082        0.8226983204        0.4373242865
S                0.3226408661        0.3226886449        0.4373319060
S                0.1773070053        1.0001149695        0.4373343495
S                0.1773119438        0.5001153005        0.4373336717
S                0.6773194652        1.0001140851        0.4373361469
S                0.6773154778        0.5001163336        0.4373293536
S                0.8356366893        0.9874417669        0.5671921710
S                0.8356420727        0.4874880184        0.5671729496
S                0.3356620629        0.9875032615        0.5671722565
S                0.3356505266        0.4874677409        0.5671848147
S                0.1516488609        0.1643467204        0.5671880598
S                0.1516905927        0.6643489539        0.5671763159
S                0.6517112435        0.1643494417        0.5671681638
S                0.6516893524        0.6643307428        0.5671724440
S                0.0125473098        0.8483302660        0.5671868281
S                0.0125085447        0.3483185766        0.5671780052
S                0.5125072118        0.8482997690        0.5671787035
S                0.5125062609        0.3482872862        0.5671724870
End final coordinates



     Writing all to output data dir ./test.save/ :
     XML data file, charge density, pseudopotentials, collected wavefunctions
 
     init_run     :      2.65s CPU      2.81s WALL (       1 calls)
     electrons    :    207.51s CPU    211.05s WALL (       5 calls)
     update_pot   :      0.20s CPU      0.22s WALL (       4 calls)
     forces       :      4.81s CPU      4.94s WALL (       5 calls)
     force_london :      0.12s CPU      0.12s WALL (       5 calls)

     Called by init_run:
     wfcinit      :      1.74s CPU      1.81s WALL (       1 calls)
     potinit      :      0.06s CPU      0.07s WALL (       1 calls)
     hinit0       :      0.07s CPU      0.09s WALL (       1 calls)

     Called by electrons:
     c_bands      :    176.37s CPU    177.71s WALL (      35 calls)
     sum_band     :     27.29s CPU     27.98s WALL (      35 calls)
     v_of_rho     :      1.20s CPU      1.32s WALL (      36 calls)
     newd         :      2.19s CPU      2.41s WALL (      36 calls)
     mix_rho      :      0.14s CPU      0.16s WALL (      35 calls)
     energy_londo :      0.03s CPU      0.03s WALL (       5 calls)

     Called by c_bands:
     init_us_2    :      3.65s CPU      3.68s WALL (     456 calls)
     cegterg      :    130.09s CPU    131.29s WALL (     210 calls)

     Called by *egterg:
     cdiaghg      :     15.92s CPU     16.15s WALL (    1023 calls)
     h_psi        :     77.73s CPU     78.36s WALL (    1077 calls)
     s_psi        :     11.67s CPU     11.74s WALL (    1077 calls)
     g_psi        :      0.28s CPU      0.28s WALL (     861 calls)

     Called by h_psi:
     h_psi:calbec :     12.81s CPU     12.89s WALL (    1077 calls)
     vloc_psi     :     52.49s CPU     52.92s WALL (    1077 calls)
     add_vuspsi   :     11.90s CPU     12.00s WALL (    1077 calls)

     General routines
     calbec       :     20.13s CPU     20.25s WALL (    1407 calls)
     fft          :      1.23s CPU      1.39s WALL (     521 calls)
     ffts         :      0.10s CPU      0.10s WALL (      71 calls)
     fftw         :     56.76s CPU     57.21s WALL (  238306 calls)
     interpolate  :      0.12s CPU      0.13s WALL (      36 calls)
     davcio       :      0.00s CPU      0.01s WALL (       6 calls)
 
     Parallel routines
 
     PWSCF        :    217.61s CPU    230.86s WALL

 
   This run was terminated on:  10: 9:12  25Sep2025            

=------------------------------------------------------------------------------=
   JOB DONE.
=------------------------------------------------------------------------------=
