
     Program PWSCF v.7.3.1 starts on  8Dec2025 at 12:11:21 

     This program is part of the open-source Quantum ESPRESSO suite
     for quantum simulation of materials; please cite
         "P. Giannozzi et al., J. Phys.:Condens. Matter 21 395502 (2009);
         "P. Giannozzi et al., J. Phys.:Condens. Matter 29 465901 (2017);
         "P. Giannozzi et al., J. Chem. Phys. 152 154105 (2020);
          URL http://www.quantum-espresso.org", 
     in publications or presentations arising from this work. More details at
     http://www.quantum-espresso.org/quote

     Parallel version (MPI & OpenMP), running on     256 processor cores
     Number of MPI processes:               256
     Threads/MPI process:                     1

     MPI processes distributed on     4 nodes
     487130 MiB available memory on the printing compute node when the environment starts
 
     Waiting for input...
     Reading input from standard input
Warning: card &IONS ignored
Warning: card / ignored
Warning: card &CELL ignored
Warning: card   PRESS = 0.0, ignored
Warning: card / ignored

     Current dimensions of program PWSCF are:
     Max number of different atomic species (ntypx) = 10
     Max number of k-points (npk) =  40000
     Max angular momentum in pseudopotentials (lmaxx) =  4

     IMPORTANT: XC functional enforced from input :
     Exchange-correlation= PBE
                           (   1   4   3   4   0   0   0)
     Any further DFT definition will be discarded
     Please, verify this is what you really want


     Atomic positions and unit cell read from directory:
     ./test.save/
 
 
     K-points division:     npool     =       4
     R & G space division:  proc/nbgrp/npool/nimage =      64
     Subspace diagonalization in iterative solution of the eigenvalue problem:
     one sub-group per band group will be used
     ELPA distributed-memory algorithm (size of sub-group:  3*  3 procs)

 
     Parallelization info
     --------------------
     sticks:   dense  smooth     PW     G-vecs:    dense   smooth      PW
     Min         180      90     23                33956    12002    1631
     Max         181      91     24                33969    12012    1652
     Sum       11557    5773   1531              2173495   768463  105205
 
     Using Slab Decomposition
 


     bravais-lattice index     =            4
     lattice parameter (alat)  =      22.8869  a.u.
     unit-cell volume          =   22488.0312 (a.u.)^3
     number of atoms/cell      =           88
     number of atomic types    =            6
     number of electrons       =       440.00
     number of Kohn-Sham states=          300
     kinetic-energy cutoff     =      40.0000  Ry
     charge density cutoff     =     320.0000  Ry
     Exchange-correlation= PBE
                           (   1   4   3   4   0   0   0)

     celldm(1)=  22.886890  celldm(2)=   0.000000  celldm(3)=   2.166010
     celldm(4)=   0.000000  celldm(5)=   0.000000  celldm(6)=   0.000000

     crystal axes: (cart. coord. in units of alat)
               a(1) = (   1.000000   0.000000   0.000000 )  
               a(2) = (  -0.500000   0.866025   0.000000 )  
               a(3) = (   0.000000   0.000000   2.166010 )  

     reciprocal axes: (cart. coord. in units 2 pi/alat)
               b(1) = (  1.000000  0.577350  0.000000 )  
               b(2) = (  0.000000  1.154701  0.000000 )  
               b(3) = (  0.000000  0.000000  0.461678 )  


     PseudoPot. # 1 for Cu read from file:
     ./cu_pbe_v1.2.uspp.F.UPF
     MD5 check sum: 6e991ff952a84172a2a52a1c1e996048
     Pseudo is Ultrasoft + core correction, Zval = 19.0
     Generated by new atomic code, or converted to UPF format
     Using radial grid of  867 points,  6 beta functions with: 
                l(1) =   0
                l(2) =   0
                l(3) =   1
                l(4) =   1
                l(5) =   2
                l(6) =   2
     Q(r) pseudized with  8 coefficients,  rinner =    1.150   1.150   1.150
                                                       1.150   1.150

     PseudoPot. # 2 for In read from file:
     ./in_pbe_v1.4.uspp.F.UPF
     MD5 check sum: 90777abd96fbb83f2e67db2a40c566b9
     Pseudo is Ultrasoft + core correction, Zval = 13.0
     Generated by new atomic code, or converted to UPF format
     Using radial grid of  889 points,  6 beta functions with: 
                l(1) =   0
                l(2) =   0
                l(3) =   1
                l(4) =   1
                l(5) =   2
                l(6) =   2
     Q(r) pseudized with  6 coefficients,  rinner =    1.400   1.400   1.400
                                                       1.400   1.400

     PseudoPot. # 3 for P  read from file:
     ./p_pbe_v1.5.uspp.F.UPF
     MD5 check sum: eb82b2c351da08c5f5f8709277dc7ee5
     Pseudo is Ultrasoft + core correction, Zval =  5.0
     Generated by new atomic code, or converted to UPF format
     Using radial grid of  903 points,  6 beta functions with: 
                l(1) =   0
                l(2) =   0
                l(3) =   1
                l(4) =   1
                l(5) =   2
                l(6) =   2
     Q(r) pseudized with  8 coefficients,  rinner =    1.300   1.300   1.300
                                                       1.300   1.300

     PseudoPot. # 4 for S  read from file:
     ./s_pbe_v1.4.uspp.F.UPF
     MD5 check sum: 88d86576ff6df21479756cfb9bdac1df
     Pseudo is Ultrasoft + core correction, Zval =  6.0
     Generated by new atomic code, or converted to UPF format
     Using radial grid of  907 points,  6 beta functions with: 
                l(1) =   0
                l(2) =   0
                l(3) =   1
                l(4) =   1
                l(5) =   2
                l(6) =   2
     Q(r) pseudized with  8 coefficients,  rinner =    1.300   1.300   1.300
                                                       1.300   1.300

     PseudoPot. # 5 for O  read from file:
     ./o_pbe_v1.2.uspp.F.UPF
     MD5 check sum: 734c27235a0248c51dbae37a1fbe46ec
     Pseudo is Ultrasoft + core correction, Zval =  6.0
     Generated by new atomic code, or converted to UPF format
     Using radial grid of  737 points,  5 beta functions with: 
                l(1) =   0
                l(2) =   0
                l(3) =   1
                l(4) =   1
                l(5) =   2
     Q(r) pseudized with  8 coefficients,  rinner =    0.900   0.900   0.900
                                                       0.900   0.900

     PseudoPot. # 6 for H  read from file:
     ./h_pbe_v1.4.uspp.F.UPF
     MD5 check sum: 761ae9a214b05c3daf00ab9f6b793d6f
     Pseudo is Ultrasoft, Zval =  1.0
     Generated by new atomic code, or converted to UPF format
     Using radial grid of  615 points,  2 beta functions with: 
                l(1) =   0
                l(2) =   0
     Q(r) pseudized with  8 coefficients,  rinner =    0.700

     atomic species   valence    mass     pseudopotential
     Cu               19.00    63.54600     Cu( 1.00)
     In               13.00   114.81800     In( 1.00)
     P                 5.00    30.97400     P ( 1.00)
     S                 6.00    32.06500     S ( 1.00)
     O                 6.00    15.99900     O ( 1.00)
     H                 1.00     1.00780     H ( 1.00)

     No symmetry found



   Cartesian axes

     site n.     atom                  positions (alat units)
         1        Cu     tau(   1) = (   0.2710678   0.1539931   1.1371638  )
         2        Cu     tau(   2) = (   0.0212122   0.5869674   1.1372872  )
         3        Cu     tau(   3) = (   0.7711397   0.1536861   1.1370492  )
         4        Cu     tau(   4) = (   0.5211136   0.5867450   1.1369709  )
         5        In     tau(   5) = (   1.0214701   0.0102410   1.0070628  )
         6        In     tau(   6) = (   0.7714056   0.4432675   1.0070624  )
         7        In     tau(   7) = (   0.5213387   0.0102752   1.0069815  )
         8        In     tau(   8) = (   0.2713897   0.4432824   1.0069990  )
         9        P      tau(   9) = (   0.0217650   0.2981845   0.9297949  )
        10        P      tau(  10) = (  -0.2282461   0.7311772   0.9297377  )
        11        P      tau(  11) = (   0.5217486   0.2982049   0.9297332  )
        12        P      tau(  12) = (   0.2717544   0.7312135   0.9297463  )
        13        P      tau(  13) = (   0.0220212   0.2983116   1.1154450  )
        14        P      tau(  14) = (  -0.2279611   0.7312864   1.1153968  )
        15        P      tau(  15) = (   0.5220674   0.2982242   1.1153861  )
        16        P      tau(  16) = (   0.2720835   0.7312605   1.1153926  )
        17        S      tau(  17) = (  -0.0667617   0.1630806   0.8860179  )
        18        S      tau(  18) = (  -0.3167625   0.5960865   0.8859060  )
        19        S      tau(  19) = (   0.4331818   0.1631552   0.8858747  )
        20        S      tau(  20) = (   0.1831759   0.5961449   0.8859552  )
        21        S      tau(  21) = (   0.4334004   0.7221402   0.8869493  )
        22        S      tau(  22) = (   0.6833952   0.2891405   0.8869427  )
        23        S      tau(  23) = (  -0.0665871   0.7221118   0.8869700  )
        24        S      tau(  24) = (   0.1834315   0.2890544   0.8870499  )
        25        S      tau(  25) = (  -0.3011888   0.8755795   0.8867636  )
        26        S      tau(  26) = (  -0.0511890   0.4425641   0.8867811  )
        27        S      tau(  27) = (   0.1987930   0.8756207   0.8868119  )
        28        S      tau(  28) = (   0.4488274   0.4426466   0.8868444  )
        29        S      tau(  29) = (   0.3636684   0.8649526   1.1669113  )
        30        S      tau(  30) = (   0.6135983   0.4319210   1.1669774  )
        31        S      tau(  31) = (  -0.1364838   0.8650579   1.1668940  )
        32        S      tau(  32) = (   0.1135968   0.4320226   1.1669374  )
        33        S      tau(  33) = (   0.0911841   0.1520285   1.1680642  )
        34        S      tau(  34) = (  -0.1587566   0.5849939   1.1679689  )
        35        S      tau(  35) = (   0.5912257   0.1518652   1.1678506  )
        36        S      tau(  36) = (   0.3412407   0.5849353   1.1679192  )
        37        S      tau(  37) = (  -0.3891009   0.7436972   1.1689713  )
        38        S      tau(  38) = (  -0.1391341   0.3106983   1.1689741  )
        39        S      tau(  39) = (   0.1110032   0.7437835   1.1690895  )
        40        S      tau(  40) = (   0.3609880   0.3107528   1.1690854  )
        41        O      tau(  41) = (   0.2516626   0.1286789   1.5280364  )
        42        O      tau(  42) = (  -0.0083551   0.1178060   1.5252400  )
        43        O      tau(  43) = (  -0.0100934   0.3361995   1.4414209  )
        44        O      tau(  44) = (   0.2067988   0.3311484   1.4205217  )
        45        O      tau(  45) = (   0.7518543   0.1286218   1.5279616  )
        46        O      tau(  46) = (   0.4916267   0.1176518   1.5250840  )
        47        O      tau(  47) = (   0.4904086   0.3360868   1.4412273  )
        48        O      tau(  48) = (   0.7073803   0.3314027   1.4208406  )
        49        O      tau(  49) = (   0.0018970   0.5616127   1.5280110  )
        50        O      tau(  50) = (  -0.2584427   0.5511208   1.5253760  )
        51        O      tau(  51) = (  -0.2596734   0.7695067   1.4413168  )
        52        O      tau(  52) = (  -0.0427956   0.7641312   1.4205397  )
        53        O      tau(  53) = (   0.5016657   0.5615195   1.5279006  )
        54        O      tau(  54) = (   0.2416581   0.5508990   1.5247858  )
        55        O      tau(  55) = (   0.2401707   0.7694208   1.4411466  )
        56        O      tau(  56) = (   0.4571281   0.7644464   1.4207836  )
        57        H      tau(  57) = (   0.3299347   0.1247868   1.5517851  )
        58        H      tau(  58) = (   0.2397586   0.0554496   1.4925178  )
        59        H      tau(  59) = (   0.0606799   0.1196799   1.5681697  )
        60        H      tau(  60) = (  -0.0108135   0.1927948   1.4902076  )
        61        H      tau(  61) = (   0.0727510   0.3356565   1.4245941  )
        62        H      tau(  62) = (  -0.0486980   0.3362059   1.3699349  )
        63        H      tau(  63) = (   0.2301230   0.2642480   1.4630432  )
        64        H      tau(  64) = (   0.2321367   0.3978928   1.4606808  )
        65        H      tau(  65) = (   0.8301278   0.1245592   1.5516858  )
        66        H      tau(  66) = (   0.7397973   0.0554875   1.4923137  )
        67        H      tau(  67) = (   0.5605605   0.1194607   1.5681679  )
        68        H      tau(  68) = (   0.4893490   0.1926305   1.4900188  )
        69        H      tau(  69) = (   0.5733121   0.3356712   1.4246811  )
        70        H      tau(  70) = (   0.4520956   0.3361261   1.3695871  )
        71        H      tau(  71) = (   0.7305868   0.2643954   1.4632777  )
        72        H      tau(  72) = (   0.7325298   0.3980533   1.4612445  )
        73        H      tau(  73) = (   0.0802577   0.5575986   1.5514758  )
        74        H      tau(  74) = (  -0.0102971   0.4884021   1.4925821  )
        75        H      tau(  75) = (  -0.1895408   0.5529587   1.5685011  )
        76        H      tau(  76) = (  -0.2607559   0.6261132   1.4903403  )
        77        H      tau(  77) = (  -0.1767986   0.7688238   1.4245798  )
        78        H      tau(  78) = (  -0.2981738   0.7694629   1.3697858  )
        79        H      tau(  79) = (  -0.0195627   0.6971377   1.4629962  )
        80        H      tau(  80) = (  -0.0174932   0.8307896   1.4608379  )
        81        H      tau(  81) = (   0.5799326   0.5576523   1.5516979  )
        82        H      tau(  82) = (   0.4897955   0.4883134   1.4923511  )
        83        H      tau(  83) = (   0.3107043   0.5526764   1.5676954  )
        84        H      tau(  84) = (   0.2392607   0.6259154   1.4898131  )
        85        H      tau(  85) = (   0.3230615   0.7688868   1.4245534  )
        86        H      tau(  86) = (   0.2017818   0.7694366   1.3695420  )
        87        H      tau(  87) = (   0.4803293   0.6974529   1.4632154  )
        88        H      tau(  88) = (   0.4823105   0.8311144   1.4611670  )

     -------------------------------------------------
     Parameters for Dispersion (Grimme-D2) Correction:
     -------------------------------------------------
       atom      VdW radius       C_6     

        Cu         2.952        374.666
        In         3.160       1294.678
        P          3.222        271.980
        S          3.180        193.230
        O          2.536         24.284
        H          1.892          4.857

     number of k points=   221  Gaussian smearing, width (Ry)=  0.0100

     Number of k-points >= 100: set verbosity='high' to print them.

     Dense  grid:  2173495 G-vectors     FFT dimensions: ( 135, 135, 288)

     Smooth grid:   768463 G-vectors     FFT dimensions: (  96,  96, 200)

     Estimated max dynamical RAM per process >      82.73 MB

     Estimated total dynamical RAM >      20.68 GB

     The potential is recalculated from file :
     ./test.save/charge-density


     negative rho (up, down):  6.382E-03 0.000E+00
     Starting wfcs are  312 randomized atomic wfcs

     Band Structure Calculation
     CG style diagonalization
     c_bands: 10 eigenvalues not converged
     c_bands: 12 eigenvalues not converged
     c_bands: 10 eigenvalues not converged
     c_bands: 12 eigenvalues not converged
     c_bands: 12 eigenvalues not converged
     c_bands: 13 eigenvalues not converged
     c_bands: 11 eigenvalues not converged
     c_bands:  9 eigenvalues not converged
     c_bands: 10 eigenvalues not converged
     c_bands: 11 eigenvalues not converged
     c_bands: 10 eigenvalues not converged
     c_bands:  8 eigenvalues not converged
     c_bands: 10 eigenvalues not converged
     c_bands: 11 eigenvalues not converged
     c_bands: 10 eigenvalues not converged
     c_bands: 13 eigenvalues not converged
     c_bands: 14 eigenvalues not converged
     c_bands: 14 eigenvalues not converged
     c_bands: 13 eigenvalues not converged
     c_bands: 13 eigenvalues not converged
     c_bands: 12 eigenvalues not converged
     c_bands: 13 eigenvalues not converged
     c_bands: 13 eigenvalues not converged
     c_bands: 11 eigenvalues not converged
     c_bands: 13 eigenvalues not converged
     c_bands: 12 eigenvalues not converged
     c_bands: 12 eigenvalues not converged
     c_bands: 12 eigenvalues not converged
     c_bands: 13 eigenvalues not converged
     c_bands: 13 eigenvalues not converged
     c_bands: 13 eigenvalues not converged
     c_bands: 11 eigenvalues not converged
     c_bands: 11 eigenvalues not converged
     c_bands: 10 eigenvalues not converged
     c_bands: 12 eigenvalues not converged
     c_bands: 10 eigenvalues not converged
     c_bands: 11 eigenvalues not converged
     c_bands: 12 eigenvalues not converged
     c_bands: 12 eigenvalues not converged
     c_bands: 11 eigenvalues not converged
     c_bands: 11 eigenvalues not converged
     c_bands: 13 eigenvalues not converged
     c_bands: 11 eigenvalues not converged
     c_bands: 10 eigenvalues not converged
     c_bands:  9 eigenvalues not converged
     c_bands: 11 eigenvalues not converged
     c_bands:  9 eigenvalues not converged
     c_bands: 10 eigenvalues not converged
     c_bands: 11 eigenvalues not converged
     c_bands:  9 eigenvalues not converged
     c_bands:  8 eigenvalues not converged
     c_bands:  9 eigenvalues not converged
     c_bands: 10 eigenvalues not converged
     c_bands: 10 eigenvalues not converged
     c_bands: 11 eigenvalues not converged
     c_bands: 13 eigenvalues not converged

     ethr =  2.27E-12,  avg # of iterations = 77.0

     total cpu time spent up to now is    21140.2 secs

     End of band structure calculation

     Number of k-points >= 100: set verbosity='high' to print the bands.

     Writing all to output data dir ./test.save/ :
     XML data file, pseudopotentials, collected wavefunctions
 
     init_run     :      0.88s CPU      1.23s WALL (       1 calls)
     electrons    :  21030.77s CPU  21134.97s WALL (       1 calls)

     Called by init_run:
     wfcinit      :      0.00s CPU      0.01s WALL (       1 calls)
     potinit      :      0.06s CPU      0.35s WALL (       1 calls)
     hinit0       :      0.07s CPU      0.08s WALL (       1 calls)

     Called by electrons:
     c_bands      :  21030.77s CPU  21134.96s WALL (       1 calls)
     v_of_rho     :      0.03s CPU      0.04s WALL (       1 calls)
     newd         :      0.14s CPU      0.16s WALL (       1 calls)

     Called by c_bands:
     init_us_2    :      0.72s CPU      0.74s WALL (      56 calls)
     ccgdiagg     :  20774.19s CPU  20876.02s WALL (     336 calls)
     wfcrot       :    126.73s CPU    128.01s WALL (     336 calls)

     Called by *cgdiagg:
     h_psi        :   8248.35s CPU   8292.77s WALL ( 1169650 calls)
     s_psi        :   6830.41s CPU   6863.54s WALL ( 2338964 calls)

     Called by h_psi:
     h_psi:calbec :   3864.48s CPU   3885.27s WALL ( 1169650 calls)
     vloc_psi     :    892.37s CPU    899.61s WALL ( 1169650 calls)
     add_vuspsi   :   3476.59s CPU   3493.94s WALL ( 1169650 calls)
     hs_1psi      :  11558.61s CPU  11617.53s WALL ( 1169314 calls)
     s_1psi       :   7047.62s CPU   7079.13s WALL ( 1169314 calls)

     General routines
     calbec       :   7465.23s CPU   7503.85s WALL ( 2338964 calls)
     fft          :      0.02s CPU      0.03s WALL (      13 calls)
     ffts         :      0.00s CPU      0.00s WALL (       1 calls)
     fftw         :    539.01s CPU    543.52s WALL ( 2541572 calls)
     interpolate  :      0.00s CPU      0.01s WALL (       1 calls)
     davcio       :      0.03s CPU      0.81s WALL (     112 calls)
 
     Parallel routines
 
     PWSCF        :  21044.57s CPU  21156.24s WALL

 
   This run was terminated on:  18: 3:57   8Dec2025            

=------------------------------------------------------------------------------=
   JOB DONE.
=------------------------------------------------------------------------------=
