
     Program PWSCF v.7.3.1 starts on  8Dec2025 at  9:39:29 

     This program is part of the open-source Quantum ESPRESSO suite
     for quantum simulation of materials; please cite
         "P. Giannozzi et al., J. Phys.:Condens. Matter 21 395502 (2009);
         "P. Giannozzi et al., J. Phys.:Condens. Matter 29 465901 (2017);
         "P. Giannozzi et al., J. Chem. Phys. 152 154105 (2020);
          URL http://www.quantum-espresso.org", 
     in publications or presentations arising from this work. More details at
     http://www.quantum-espresso.org/quote

     Parallel version (MPI & OpenMP), running on     256 processor cores
     Number of MPI processes:               256
     Threads/MPI process:                     1

     MPI processes distributed on     4 nodes
     495528 MiB available memory on the printing compute node when the environment starts
 
     Waiting for input...
     Reading input from standard input
Warning: card &IONS ignored
Warning: card / ignored
Warning: card &CELL ignored
Warning: card   PRESS = 0.0, ignored
Warning: card / ignored

     Current dimensions of program PWSCF are:
     Max number of different atomic species (ntypx) = 10
     Max number of k-points (npk) =  40000
     Max angular momentum in pseudopotentials (lmaxx) =  4

     IMPORTANT: XC functional enforced from input :
     Exchange-correlation= PBE
                           (   1   4   3   4   0   0   0)
     Any further DFT definition will be discarded
     Please, verify this is what you really want


     Atomic positions and unit cell read from directory:
     ./test.save/
 
 
     K-points division:     npool     =       4
     R & G space division:  proc/nbgrp/npool/nimage =      64
     Subspace diagonalization in iterative solution of the eigenvalue problem:
     one sub-group per band group will be used
     ELPA distributed-memory algorithm (size of sub-group:  3*  3 procs)

 
     Parallelization info
     --------------------
     sticks:   dense  smooth     PW     G-vecs:    dense   smooth      PW
     Min         180      90     24                33956    12002    1680
     Max         181      91     25                33969    12012    1689
     Sum       11557    5773   1555              2173495   768463  107785
 
     Using Slab Decomposition
 


     bravais-lattice index     =            4
     lattice parameter (alat)  =      22.8869  a.u.
     unit-cell volume          =   22488.0312 (a.u.)^3
     number of atoms/cell      =           88
     number of atomic types    =            6
     number of electrons       =       440.00
     number of Kohn-Sham states=          300
     kinetic-energy cutoff     =      40.0000  Ry
     charge density cutoff     =     320.0000  Ry
     Exchange-correlation= PBE
                           (   1   4   3   4   0   0   0)

     celldm(1)=  22.886890  celldm(2)=   0.000000  celldm(3)=   2.166010
     celldm(4)=   0.000000  celldm(5)=   0.000000  celldm(6)=   0.000000

     crystal axes: (cart. coord. in units of alat)
               a(1) = (   1.000000   0.000000   0.000000 )  
               a(2) = (  -0.500000   0.866025   0.000000 )  
               a(3) = (   0.000000   0.000000   2.166010 )  

     reciprocal axes: (cart. coord. in units 2 pi/alat)
               b(1) = (  1.000000  0.577350  0.000000 )  
               b(2) = (  0.000000  1.154701  0.000000 )  
               b(3) = (  0.000000  0.000000  0.461678 )  


     PseudoPot. # 1 for Cu read from file:
     ./cu_pbe_v1.2.uspp.F.UPF
     MD5 check sum: 6e991ff952a84172a2a52a1c1e996048
     Pseudo is Ultrasoft + core correction, Zval = 19.0
     Generated by new atomic code, or converted to UPF format
     Using radial grid of  867 points,  6 beta functions with: 
                l(1) =   0
                l(2) =   0
                l(3) =   1
                l(4) =   1
                l(5) =   2
                l(6) =   2
     Q(r) pseudized with  8 coefficients,  rinner =    1.150   1.150   1.150
                                                       1.150   1.150

     PseudoPot. # 2 for In read from file:
     ./in_pbe_v1.4.uspp.F.UPF
     MD5 check sum: 90777abd96fbb83f2e67db2a40c566b9
     Pseudo is Ultrasoft + core correction, Zval = 13.0
     Generated by new atomic code, or converted to UPF format
     Using radial grid of  889 points,  6 beta functions with: 
                l(1) =   0
                l(2) =   0
                l(3) =   1
                l(4) =   1
                l(5) =   2
                l(6) =   2
     Q(r) pseudized with  6 coefficients,  rinner =    1.400   1.400   1.400
                                                       1.400   1.400

     PseudoPot. # 3 for P  read from file:
     ./p_pbe_v1.5.uspp.F.UPF
     MD5 check sum: eb82b2c351da08c5f5f8709277dc7ee5
     Pseudo is Ultrasoft + core correction, Zval =  5.0
     Generated by new atomic code, or converted to UPF format
     Using radial grid of  903 points,  6 beta functions with: 
                l(1) =   0
                l(2) =   0
                l(3) =   1
                l(4) =   1
                l(5) =   2
                l(6) =   2
     Q(r) pseudized with  8 coefficients,  rinner =    1.300   1.300   1.300
                                                       1.300   1.300

     PseudoPot. # 4 for S  read from file:
     ./s_pbe_v1.4.uspp.F.UPF
     MD5 check sum: 88d86576ff6df21479756cfb9bdac1df
     Pseudo is Ultrasoft + core correction, Zval =  6.0
     Generated by new atomic code, or converted to UPF format
     Using radial grid of  907 points,  6 beta functions with: 
                l(1) =   0
                l(2) =   0
                l(3) =   1
                l(4) =   1
                l(5) =   2
                l(6) =   2
     Q(r) pseudized with  8 coefficients,  rinner =    1.300   1.300   1.300
                                                       1.300   1.300

     PseudoPot. # 5 for O  read from file:
     ./o_pbe_v1.2.uspp.F.UPF
     MD5 check sum: 734c27235a0248c51dbae37a1fbe46ec
     Pseudo is Ultrasoft + core correction, Zval =  6.0
     Generated by new atomic code, or converted to UPF format
     Using radial grid of  737 points,  5 beta functions with: 
                l(1) =   0
                l(2) =   0
                l(3) =   1
                l(4) =   1
                l(5) =   2
     Q(r) pseudized with  8 coefficients,  rinner =    0.900   0.900   0.900
                                                       0.900   0.900

     PseudoPot. # 6 for H  read from file:
     ./h_pbe_v1.4.uspp.F.UPF
     MD5 check sum: 761ae9a214b05c3daf00ab9f6b793d6f
     Pseudo is Ultrasoft, Zval =  1.0
     Generated by new atomic code, or converted to UPF format
     Using radial grid of  615 points,  2 beta functions with: 
                l(1) =   0
                l(2) =   0
     Q(r) pseudized with  8 coefficients,  rinner =    0.700

     atomic species   valence    mass     pseudopotential
     Cu               19.00    63.54600     Cu( 1.00)
     In               13.00   114.81800     In( 1.00)
     P                 5.00    30.97400     P ( 1.00)
     S                 6.00    32.06500     S ( 1.00)
     O                 6.00    15.99900     O ( 1.00)
     H                 1.00     1.00780     H ( 1.00)

     No symmetry found



   Cartesian axes

     site n.     atom                  positions (alat units)
         1        Cu     tau(   1) = (   0.2710678   0.1539931   1.1371638  )
         2        Cu     tau(   2) = (   0.0212122   0.5869674   1.1372872  )
         3        Cu     tau(   3) = (   0.7711397   0.1536861   1.1370492  )
         4        Cu     tau(   4) = (   0.5211136   0.5867450   1.1369709  )
         5        In     tau(   5) = (   1.0214701   0.0102410   1.0070628  )
         6        In     tau(   6) = (   0.7714056   0.4432675   1.0070624  )
         7        In     tau(   7) = (   0.5213387   0.0102752   1.0069815  )
         8        In     tau(   8) = (   0.2713897   0.4432824   1.0069990  )
         9        P      tau(   9) = (   0.0217650   0.2981845   0.9297949  )
        10        P      tau(  10) = (  -0.2282461   0.7311772   0.9297377  )
        11        P      tau(  11) = (   0.5217486   0.2982049   0.9297332  )
        12        P      tau(  12) = (   0.2717544   0.7312135   0.9297463  )
        13        P      tau(  13) = (   0.0220212   0.2983116   1.1154450  )
        14        P      tau(  14) = (  -0.2279611   0.7312864   1.1153968  )
        15        P      tau(  15) = (   0.5220674   0.2982242   1.1153861  )
        16        P      tau(  16) = (   0.2720835   0.7312605   1.1153926  )
        17        S      tau(  17) = (  -0.0667617   0.1630806   0.8860179  )
        18        S      tau(  18) = (  -0.3167625   0.5960865   0.8859060  )
        19        S      tau(  19) = (   0.4331818   0.1631552   0.8858747  )
        20        S      tau(  20) = (   0.1831759   0.5961449   0.8859552  )
        21        S      tau(  21) = (   0.4334004   0.7221402   0.8869493  )
        22        S      tau(  22) = (   0.6833952   0.2891405   0.8869427  )
        23        S      tau(  23) = (  -0.0665871   0.7221118   0.8869700  )
        24        S      tau(  24) = (   0.1834315   0.2890544   0.8870499  )
        25        S      tau(  25) = (  -0.3011888   0.8755795   0.8867636  )
        26        S      tau(  26) = (  -0.0511890   0.4425641   0.8867811  )
        27        S      tau(  27) = (   0.1987930   0.8756207   0.8868119  )
        28        S      tau(  28) = (   0.4488274   0.4426466   0.8868444  )
        29        S      tau(  29) = (   0.3636684   0.8649526   1.1669113  )
        30        S      tau(  30) = (   0.6135983   0.4319210   1.1669774  )
        31        S      tau(  31) = (  -0.1364838   0.8650579   1.1668940  )
        32        S      tau(  32) = (   0.1135968   0.4320226   1.1669374  )
        33        S      tau(  33) = (   0.0911841   0.1520285   1.1680642  )
        34        S      tau(  34) = (  -0.1587566   0.5849939   1.1679689  )
        35        S      tau(  35) = (   0.5912257   0.1518652   1.1678506  )
        36        S      tau(  36) = (   0.3412407   0.5849353   1.1679192  )
        37        S      tau(  37) = (  -0.3891009   0.7436972   1.1689713  )
        38        S      tau(  38) = (  -0.1391341   0.3106983   1.1689741  )
        39        S      tau(  39) = (   0.1110032   0.7437835   1.1690895  )
        40        S      tau(  40) = (   0.3609880   0.3107528   1.1690854  )
        41        O      tau(  41) = (   0.2516626   0.1286789   1.5280364  )
        42        O      tau(  42) = (  -0.0083551   0.1178060   1.5252400  )
        43        O      tau(  43) = (  -0.0100934   0.3361995   1.4414209  )
        44        O      tau(  44) = (   0.2067988   0.3311484   1.4205217  )
        45        O      tau(  45) = (   0.7518543   0.1286218   1.5279616  )
        46        O      tau(  46) = (   0.4916267   0.1176518   1.5250840  )
        47        O      tau(  47) = (   0.4904086   0.3360868   1.4412273  )
        48        O      tau(  48) = (   0.7073803   0.3314027   1.4208406  )
        49        O      tau(  49) = (   0.0018970   0.5616127   1.5280110  )
        50        O      tau(  50) = (  -0.2584427   0.5511208   1.5253760  )
        51        O      tau(  51) = (  -0.2596734   0.7695067   1.4413168  )
        52        O      tau(  52) = (  -0.0427956   0.7641312   1.4205397  )
        53        O      tau(  53) = (   0.5016657   0.5615195   1.5279006  )
        54        O      tau(  54) = (   0.2416581   0.5508990   1.5247858  )
        55        O      tau(  55) = (   0.2401707   0.7694208   1.4411466  )
        56        O      tau(  56) = (   0.4571281   0.7644464   1.4207836  )
        57        H      tau(  57) = (   0.3299347   0.1247868   1.5517851  )
        58        H      tau(  58) = (   0.2397586   0.0554496   1.4925178  )
        59        H      tau(  59) = (   0.0606799   0.1196799   1.5681697  )
        60        H      tau(  60) = (  -0.0108135   0.1927948   1.4902076  )
        61        H      tau(  61) = (   0.0727510   0.3356565   1.4245941  )
        62        H      tau(  62) = (  -0.0486980   0.3362059   1.3699349  )
        63        H      tau(  63) = (   0.2301230   0.2642480   1.4630432  )
        64        H      tau(  64) = (   0.2321367   0.3978928   1.4606808  )
        65        H      tau(  65) = (   0.8301278   0.1245592   1.5516858  )
        66        H      tau(  66) = (   0.7397973   0.0554875   1.4923137  )
        67        H      tau(  67) = (   0.5605605   0.1194607   1.5681679  )
        68        H      tau(  68) = (   0.4893490   0.1926305   1.4900188  )
        69        H      tau(  69) = (   0.5733121   0.3356712   1.4246811  )
        70        H      tau(  70) = (   0.4520956   0.3361261   1.3695871  )
        71        H      tau(  71) = (   0.7305868   0.2643954   1.4632777  )
        72        H      tau(  72) = (   0.7325298   0.3980533   1.4612445  )
        73        H      tau(  73) = (   0.0802577   0.5575986   1.5514758  )
        74        H      tau(  74) = (  -0.0102971   0.4884021   1.4925821  )
        75        H      tau(  75) = (  -0.1895408   0.5529587   1.5685011  )
        76        H      tau(  76) = (  -0.2607559   0.6261132   1.4903403  )
        77        H      tau(  77) = (  -0.1767986   0.7688238   1.4245798  )
        78        H      tau(  78) = (  -0.2981738   0.7694629   1.3697858  )
        79        H      tau(  79) = (  -0.0195627   0.6971377   1.4629962  )
        80        H      tau(  80) = (  -0.0174932   0.8307896   1.4608379  )
        81        H      tau(  81) = (   0.5799326   0.5576523   1.5516979  )
        82        H      tau(  82) = (   0.4897955   0.4883134   1.4923511  )
        83        H      tau(  83) = (   0.3107043   0.5526764   1.5676954  )
        84        H      tau(  84) = (   0.2392607   0.6259154   1.4898131  )
        85        H      tau(  85) = (   0.3230615   0.7688868   1.4245534  )
        86        H      tau(  86) = (   0.2017818   0.7694366   1.3695420  )
        87        H      tau(  87) = (   0.4803293   0.6974529   1.4632154  )
        88        H      tau(  88) = (   0.4823105   0.8311144   1.4611670  )

     -------------------------------------------------
     Parameters for Dispersion (Grimme-D2) Correction:
     -------------------------------------------------
       atom      VdW radius       C_6     

        Cu         2.952        374.666
        In         3.160       1294.678
        P          3.222        271.980
        S          3.180        193.230
        O          2.536         24.284
        H          1.892          4.857

     number of k points=    96  Gaussian smearing, width (Ry)=  0.0100
                       cart. coord. in units 2pi/alat
        k(    1) = (   0.0625000   0.1082532  -0.2308392), wk =   0.0208333
        k(    2) = (   0.0625000   0.2525907  -0.2308392), wk =   0.0208333
        k(    3) = (   0.0625000   0.3969283  -0.2308392), wk =   0.0208333
        k(    4) = (   0.0625000   0.5412659  -0.2308392), wk =   0.0208333
        k(    5) = (   0.0625000  -0.4690971  -0.2308392), wk =   0.0208333
        k(    6) = (   0.0625000  -0.3247595  -0.2308392), wk =   0.0208333
        k(    7) = (   0.0625000  -0.1804220  -0.2308392), wk =   0.0208333
        k(    8) = (   0.0625000  -0.0360844  -0.2308392), wk =   0.0208333
        k(    9) = (   0.1875000   0.3247595  -0.2308392), wk =   0.0208333
        k(   10) = (   0.1875000   0.4690971  -0.2308392), wk =   0.0208333
        k(   11) = (   0.1875000   0.6134347  -0.2308392), wk =   0.0208333
        k(   12) = (   0.1875000  -0.3969283  -0.2308392), wk =   0.0208333
        k(   13) = (   0.1875000  -0.2525907  -0.2308392), wk =   0.0208333
        k(   14) = (   0.1875000  -0.1082532  -0.2308392), wk =   0.0208333
        k(   15) = (   0.3125000   0.5412659  -0.2308392), wk =   0.0208333
        k(   16) = (   0.3125000   0.6856034  -0.2308392), wk =   0.0208333
        k(   17) = (   0.3125000  -0.3247595  -0.2308392), wk =   0.0208333
        k(   18) = (   0.3125000  -0.1804220  -0.2308392), wk =   0.0208333
        k(   19) = (   0.4375000   0.7577722  -0.2308392), wk =   0.0208333
        k(   20) = (   0.4375000  -0.2525907  -0.2308392), wk =   0.0208333
        k(   21) = (  -0.0625000   0.1082532   0.2308392), wk =   0.0208333
        k(   22) = (   0.1250000   0.0000000  -0.2308392), wk =   0.0208333
        k(   23) = (  -0.0625000   0.2525907   0.2308392), wk =   0.0208333
        k(   24) = (  -0.1875000   0.1804220  -0.2308392), wk =   0.0208333
        k(   25) = (   0.2500000   0.0721688  -0.2308392), wk =   0.0208333
        k(   26) = (  -0.1875000  -0.1804220   0.2308392), wk =   0.0208333
        k(   27) = (   0.2500000  -0.0721688   0.2308392), wk =   0.0208333
        k(   28) = (  -0.0625000   0.3969283   0.2308392), wk =   0.0208333
        k(   29) = (  -0.3125000   0.2525907  -0.2308392), wk =   0.0208333
        k(   30) = (   0.3750000   0.1443376  -0.2308392), wk =   0.0208333
        k(   31) = (  -0.3125000  -0.2525907   0.2308392), wk =   0.0208333
        k(   32) = (   0.3750000  -0.1443376   0.2308392), wk =   0.0208333
        k(   33) = (  -0.0625000   0.5412659   0.2308392), wk =   0.0208333
        k(   34) = (  -0.4375000   0.3247595  -0.2308392), wk =   0.0208333
        k(   35) = (   0.5000000   0.2165064  -0.2308392), wk =   0.0208333
        k(   36) = (  -0.4375000  -0.3247595   0.2308392), wk =   0.0208333
        k(   37) = (   0.5000000  -0.2165064   0.2308392), wk =   0.0208333
        k(   38) = (  -0.0625000  -0.4690971   0.2308392), wk =   0.0208333
        k(   39) = (   0.4375000  -0.1804220  -0.2308392), wk =   0.0208333
        k(   40) = (  -0.3750000  -0.2886751  -0.2308392), wk =   0.0208333
        k(   41) = (   0.4375000   0.1804220   0.2308392), wk =   0.0208333
        k(   42) = (  -0.3750000   0.2886751   0.2308392), wk =   0.0208333
        k(   43) = (  -0.0625000  -0.3247595   0.2308392), wk =   0.0208333
        k(   44) = (   0.3125000  -0.1082532  -0.2308392), wk =   0.0208333
        k(   45) = (  -0.2500000  -0.2165064  -0.2308392), wk =   0.0208333
        k(   46) = (   0.3125000   0.1082532   0.2308392), wk =   0.0208333
        k(   47) = (  -0.2500000   0.2165064   0.2308392), wk =   0.0208333
        k(   48) = (  -0.0625000  -0.1804220   0.2308392), wk =   0.0208333
        k(   49) = (   0.1875000  -0.0360844  -0.2308392), wk =   0.0208333
        k(   50) = (  -0.1250000  -0.1443376  -0.2308392), wk =   0.0208333
        k(   51) = (   0.1875000   0.0360844   0.2308392), wk =   0.0208333
        k(   52) = (  -0.1250000   0.1443376   0.2308392), wk =   0.0208333
        k(   53) = (  -0.0625000  -0.0360844   0.2308392), wk =   0.0208333
        k(   54) = (   0.0000000  -0.0721688  -0.2308392), wk =   0.0208333
        k(   55) = (  -0.1875000   0.3247595   0.2308392), wk =   0.0208333
        k(   56) = (   0.3750000   0.0000000  -0.2308392), wk =   0.0208333
        k(   57) = (  -0.1875000   0.4690971   0.2308392), wk =   0.0208333
        k(   58) = (  -0.3125000   0.3969283  -0.2308392), wk =   0.0208333
        k(   59) = (   0.5000000   0.0721688  -0.2308392), wk =   0.0208333
        k(   60) = (  -0.3125000  -0.3969283   0.2308392), wk =   0.0208333
        k(   61) = (   0.5000000  -0.0721688   0.2308392), wk =   0.0208333
        k(   62) = (  -0.1875000   0.6134347   0.2308392), wk =   0.0208333
        k(   63) = (  -0.4375000   0.4690971  -0.2308392), wk =   0.0208333
        k(   64) = (   0.6250000   0.1443376  -0.2308392), wk =   0.0208333
        k(   65) = (  -0.4375000  -0.4690971   0.2308392), wk =   0.0208333
        k(   66) = (   0.6250000  -0.1443376   0.2308392), wk =   0.0208333
        k(   67) = (  -0.1875000  -0.3969283   0.2308392), wk =   0.0208333
        k(   68) = (   0.4375000  -0.0360844  -0.2308392), wk =   0.0208333
        k(   69) = (  -0.2500000  -0.3608439  -0.2308392), wk =   0.0208333
        k(   70) = (   0.4375000   0.0360844   0.2308392), wk =   0.0208333
        k(   71) = (  -0.2500000   0.3608439   0.2308392), wk =   0.0208333
        k(   72) = (  -0.1875000  -0.2525907   0.2308392), wk =   0.0208333
        k(   73) = (   0.3125000   0.0360844  -0.2308392), wk =   0.0208333
        k(   74) = (  -0.1250000  -0.2886751  -0.2308392), wk =   0.0208333
        k(   75) = (   0.3125000  -0.0360844   0.2308392), wk =   0.0208333
        k(   76) = (  -0.1250000   0.2886751   0.2308392), wk =   0.0208333
        k(   77) = (  -0.1875000  -0.1082532   0.2308392), wk =   0.0208333
        k(   78) = (   0.0000000  -0.2165064  -0.2308392), wk =   0.0208333
        k(   79) = (  -0.3125000   0.5412659   0.2308392), wk =   0.0208333
        k(   80) = (   0.6250000   0.0000000  -0.2308392), wk =   0.0208333
        k(   81) = (  -0.3125000   0.6856034   0.2308392), wk =   0.0208333
        k(   82) = (  -0.4375000   0.6134347  -0.2308392), wk =   0.0208333
        k(   83) = (   0.7500000   0.0721688  -0.2308392), wk =   0.0208333
        k(   84) = (  -0.4375000  -0.6134347   0.2308392), wk =   0.0208333
        k(   85) = (   0.7500000  -0.0721688   0.2308392), wk =   0.0208333
        k(   86) = (  -0.3125000  -0.3247595   0.2308392), wk =   0.0208333
        k(   87) = (   0.4375000   0.1082532  -0.2308392), wk =   0.0208333
        k(   88) = (  -0.1250000  -0.4330127  -0.2308392), wk =   0.0208333
        k(   89) = (   0.4375000  -0.1082532   0.2308392), wk =   0.0208333
        k(   90) = (  -0.1250000   0.4330127   0.2308392), wk =   0.0208333
        k(   91) = (  -0.3125000  -0.1804220   0.2308392), wk =   0.0208333
        k(   92) = (   0.0000000  -0.3608439  -0.2308392), wk =   0.0208333
        k(   93) = (  -0.4375000   0.7577722   0.2308392), wk =   0.0208333
        k(   94) = (   0.8750000   0.0000000  -0.2308392), wk =   0.0208333
        k(   95) = (  -0.4375000  -0.2525907   0.2308392), wk =   0.0208333
        k(   96) = (   0.0000000  -0.5051815  -0.2308392), wk =   0.0208333

     Dense  grid:  2173495 G-vectors     FFT dimensions: ( 135, 135, 288)

     Smooth grid:   768463 G-vectors     FFT dimensions: (  96,  96, 200)

     Estimated max dynamical RAM per process >      82.73 MB

     Estimated total dynamical RAM >      20.68 GB

     The potential is recalculated from file :
     ./test.save/charge-density


     negative rho (up, down):  6.382E-03 0.000E+00
     Starting wfcs are  312 randomized atomic wfcs

     Band Structure Calculation
     CG style diagonalization
     c_bands: 10 eigenvalues not converged
     c_bands: 10 eigenvalues not converged
     c_bands: 12 eigenvalues not converged
     c_bands: 11 eigenvalues not converged
     c_bands: 12 eigenvalues not converged
     c_bands: 11 eigenvalues not converged
     c_bands: 11 eigenvalues not converged
     c_bands:  9 eigenvalues not converged
     c_bands: 12 eigenvalues not converged
     c_bands: 11 eigenvalues not converged
     c_bands: 10 eigenvalues not converged
     c_bands: 10 eigenvalues not converged
     c_bands: 10 eigenvalues not converged
     c_bands: 10 eigenvalues not converged
     c_bands: 12 eigenvalues not converged
     c_bands: 12 eigenvalues not converged
     c_bands: 11 eigenvalues not converged
     c_bands: 11 eigenvalues not converged
     c_bands:  8 eigenvalues not converged
     c_bands:  9 eigenvalues not converged
     c_bands: 12 eigenvalues not converged
     c_bands: 10 eigenvalues not converged
     c_bands: 11 eigenvalues not converged
     c_bands:  9 eigenvalues not converged

     ethr =  2.27E-12,  avg # of iterations = 76.9

     total cpu time spent up to now is     9100.8 secs

     End of band structure calculation

          k = 0.0625 0.1083-0.2308 ( 96006 PWs)   bands (ev):

  -113.6390-113.6381-113.6380-113.6376 -71.1139 -71.1134 -71.1130 -71.1127
   -71.1098 -71.1086 -71.1086 -71.1080 -70.9379 -70.9372 -70.9371 -70.9368
   -22.1690 -22.0610 -22.0349 -22.0235 -21.8277 -21.8227 -21.6995 -21.6644
   -21.6484 -21.6346 -21.4825 -21.4603 -21.3864 -21.3764 -21.3146 -21.1997
   -18.2062 -18.0492 -18.0488 -18.0446 -17.2350 -17.2335 -17.2329 -17.1937
   -16.8061 -16.7956 -16.7659 -16.7620 -16.7615 -16.5492 -16.5479 -16.5406
   -16.5164 -16.5146 -16.5141 -16.5140 -16.5134 -16.5018 -16.5017 -16.5005
   -16.4847 -16.4108 -16.4078 -16.3998 -15.7131 -15.7055 -15.7008 -15.2741
   -15.2688 -15.2668 -15.1194 -15.1143 -14.9862 -14.9725 -14.9706 -14.6343
   -14.6285 -14.6279 -14.5226 -14.5120 -12.4780 -11.8620 -11.8535 -11.8468
   -10.6906 -10.1807 -10.1801 -10.1576  -9.9193  -9.8963  -9.8910  -9.8420
    -9.8246  -9.8145  -9.7065  -9.6992  -9.6970  -9.6837  -9.5972  -9.5428
    -9.3005  -9.2222  -9.1450  -9.0934  -9.0413  -8.8221  -8.8151  -8.8008
    -8.1245  -8.1230  -8.1122  -8.0441  -8.0180  -7.8184  -7.8060  -7.7950
    -7.5457  -7.5336  -7.5262  -7.4683  -7.4157  -7.2983  -6.9603  -6.9135
    -6.9001  -6.8852  -6.8760  -6.8734  -6.7410  -6.7162  -6.7140  -6.7068
    -6.6755  -6.6305  -6.4142  -6.3296  -6.2614  -6.1619  -5.9286  -5.9260
    -5.9182  -5.9177  -5.8413  -5.6797  -5.6679  -5.6531  -5.5705  -5.5612
    -5.4905  -5.4601  -5.3219  -5.3047  -5.3037  -5.2865  -5.2529  -5.2385
    -5.1209  -5.1150  -5.1059  -5.1041  -4.9198  -4.9105  -4.8934  -4.8874
    -4.8669  -4.6335  -4.6285  -4.6239  -4.4951  -4.4731  -4.4707  -4.3339
    -4.3189  -4.3096  -4.2943  -4.2732  -4.2597  -4.2538  -4.2081  -4.1974
    -4.1699  -4.1599  -4.1534  -4.1280  -4.1200  -4.1161  -4.0894  -4.0772
    -4.0490  -4.0405  -3.9809  -3.9354  -3.9299  -3.8979  -3.8558  -3.8258
    -3.7543  -3.7467  -3.7389  -3.5829  -3.5650  -3.5590  -3.4724  -3.4264
    -3.3886  -3.3270  -3.3261  -3.3113  -3.2721  -3.2650  -3.2480  -3.2105
    -3.1905  -3.1760  -3.0966  -3.0596  -2.8697  -2.8580  -2.8435  -2.6942
    -2.6899  -2.6629  -2.4990  -2.4479  -0.6966  -0.2941  -0.2913  -0.2747
     0.2962   0.5583   0.5794   0.5974   0.6605   0.6607   0.6627   0.8440
     0.8811   0.8908   1.0574   1.0644   1.0767   1.0842   1.0933   1.3688
     1.5068   1.5401   1.5614   1.5838   1.8496   1.8770   1.8786   1.9059
     2.2996   2.3343   2.3767   2.3865   2.3924   2.5887   2.6716   2.7144
     2.7194   3.0139   3.0315   3.0591   3.0694   3.1093   3.1590   3.2408
     3.2491   3.2884   3.3551   3.3737   3.3983   3.4584   3.5416   3.5884
     3.6080   3.6853   3.8562   3.8770   3.9250   4.1024   4.1826   4.1894
     4.2456   4.2530   4.2625   4.3503   4.3584   4.4058   4.4102   4.4238
     4.4304   4.4801   4.5510   4.5631   4.6020   4.6043   4.6390   4.7293
     4.7477   4.7983   4.8174   4.9052

          k = 0.0625 0.2526-0.2308 ( 96096 PWs)   bands (ev):

  -113.6390-113.6381-113.6380-113.6376 -71.1139 -71.1134 -71.1130 -71.1127
   -71.1098 -71.1086 -71.1086 -71.1080 -70.9379 -70.9372 -70.9371 -70.9368
   -22.1588 -22.0574 -22.0461 -22.0452 -21.8065 -21.7987 -21.7059 -21.6804
   -21.6386 -21.6354 -21.5069 -21.4862 -21.3713 -21.3465 -21.3109 -21.2108
   -18.1922 -18.0653 -18.0524 -18.0421 -17.2321 -17.2312 -17.2295 -17.2006
   -16.8043 -16.7806 -16.7743 -16.7694 -16.7669 -16.5631 -16.5451 -16.5316
   -16.5160 -16.5142 -16.5137 -16.5136 -16.5131 -16.5040 -16.5019 -16.5016
   -16.4833 -16.4286 -16.4118 -16.3889 -15.6995 -15.6710 -15.6475 -15.3120
   -15.2921 -15.2566 -15.1747 -15.1324 -14.9807 -14.9493 -14.9247 -14.6467
   -14.6344 -14.6172 -14.5655 -14.5233 -12.4097 -11.9075 -11.8661 -11.8273
   -10.6452 -10.2326 -10.1766 -10.1277  -9.9183  -9.8957  -9.8879  -9.8370
    -9.8221  -9.8194  -9.7177  -9.7142  -9.6949  -9.6831  -9.5837  -9.5409
    -9.2888  -9.2327  -9.1352  -9.0688  -9.0519  -8.8372  -8.8016  -8.7554
    -8.1851  -8.1514  -8.1336  -8.0890  -7.9838  -7.8560  -7.8305  -7.8071
    -7.6013  -7.5992  -7.5561  -7.5337  -7.3588  -7.2748  -6.9859  -6.9640
    -6.9548  -6.9259  -6.8837  -6.8786  -6.6576  -6.6431  -6.6217  -6.6177
    -6.5911  -6.5884  -6.4124  -6.3670  -6.2918  -6.1210  -5.9779  -5.8870
    -5.8849  -5.8834  -5.8335  -5.6709  -5.6635  -5.6304  -5.5484  -5.5406
    -5.4656  -5.4428  -5.3254  -5.3243  -5.3031  -5.2806  -5.2643  -5.2160
    -5.1278  -5.1235  -5.1222  -5.1161  -4.9229  -4.9177  -4.9120  -4.9104
    -4.8995  -4.6646  -4.6628  -4.6388  -4.4965  -4.4817  -4.4783  -4.3321
    -4.3276  -4.3117  -4.2964  -4.2868  -4.2476  -4.2464  -4.2095  -4.1725
    -4.1723  -4.1433  -4.1210  -4.1104  -4.1056  -4.0957  -4.0640  -4.0541
    -4.0295  -4.0160  -3.9748  -3.9392  -3.9335  -3.9031  -3.8478  -3.8234
    -3.7418  -3.7357  -3.7167  -3.5483  -3.5422  -3.5311  -3.5232  -3.4358
    -3.3761  -3.3400  -3.3261  -3.3152  -3.2923  -3.2556  -3.2501  -3.2116
    -3.2064  -3.1541  -3.1482  -3.1081  -2.8944  -2.8759  -2.8560  -2.7810
    -2.7001  -2.6427  -2.6350  -2.5071  -0.5535  -0.3306  -0.3008  -0.2306
     0.3954   0.4798   0.5123   0.6205   0.6727   0.7193   0.7878   0.8283
     0.8755   0.9526   1.0154   1.0303   1.0764   1.0971   1.1038   1.3772
     1.4184   1.5297   1.5383   1.5859   1.8543   1.8897   1.9073   1.9388
     2.2659   2.2791   2.3301   2.3391   2.3955   2.5959   2.6821   2.7115
     2.7427   2.9357   2.9869   3.0028   3.0097   3.0817   3.1549   3.1954
     3.2213   3.3334   3.3649   3.4031   3.4255   3.4425   3.5901   3.6533
     3.6798   3.8322   3.9352   3.9527   4.0460   4.0594   4.0820   4.1144
     4.1653   4.2473   4.2540   4.2994   4.3620   4.3795   4.4350   4.4357
     4.4719   4.5090   4.5387   4.5683   4.6485   4.6576   4.7165   4.7270
     4.7862   4.8771   4.9578   4.9581

          k = 0.0625 0.3969-0.2308 ( 96092 PWs)   bands (ev):

  -113.6390-113.6381-113.6380-113.6376 -71.1139 -71.1134 -71.1130 -71.1127
   -71.1098 -71.1086 -71.1086 -71.1080 -70.9379 -70.9372 -70.9371 -70.9368
   -22.1411 -22.0754 -22.0556 -22.0532 -21.7780 -21.7679 -21.7237 -21.7043
   -21.6231 -21.6201 -21.5371 -21.5221 -21.3535 -21.3106 -21.3095 -21.2303
   -18.1687 -18.0915 -18.0552 -18.0404 -17.2283 -17.2276 -17.2248 -17.2099
   -16.8000 -16.7958 -16.7891 -16.7798 -16.7216 -16.5931 -16.5404 -16.5250
   -16.5151 -16.5133 -16.5131 -16.5129 -16.5126 -16.5070 -16.5029 -16.5025
   -16.4801 -16.4526 -16.4104 -16.3784 -15.6747 -15.6349 -15.5541 -15.3594
   -15.3272 -15.2666 -15.2349 -15.1594 -14.9681 -14.9297 -14.8502 -14.6617
   -14.6432 -14.6331 -14.5995 -14.5428 -12.3028 -11.9981 -11.8658 -11.8093
   -10.5690 -10.3169 -10.1662 -10.0980  -9.9159  -9.9022  -9.8744  -9.8347
    -9.8282  -9.8135  -9.7334  -9.7310  -9.6906  -9.6831  -9.5661  -9.5414
    -9.2733  -9.2481  -9.1192  -9.0712  -9.0238  -8.8792  -8.7669  -8.6964
    -8.2303  -8.2019  -8.1797  -8.1557  -7.9222  -7.8708  -7.8412  -7.8161
    -7.6975  -7.6786  -7.6033  -7.6022  -7.2611  -7.2322  -7.0494  -7.0200
    -6.9592  -6.9563  -6.9423  -6.8765  -6.6030  -6.5666  -6.5589  -6.5331
    -6.4943  -6.4728  -6.4422  -6.4169  -6.2840  -6.0616  -6.0570  -5.8850
    -5.8446  -5.8345  -5.7668  -5.6723  -5.6612  -5.5887  -5.5350  -5.5153
    -5.4273  -5.4156  -5.3995  -5.3226  -5.2975  -5.2637  -5.2433  -5.2266
    -5.1417  -5.1354  -5.1311  -5.1297  -4.9689  -4.9511  -4.9156  -4.9128
    -4.8865  -4.7249  -4.7105  -4.6868  -4.4733  -4.4720  -4.4692  -4.3460
    -4.3267  -4.3133  -4.2954  -4.2938  -4.2389  -4.2377  -4.1877  -4.1637
    -4.1330  -4.1294  -4.1103  -4.1010  -4.0917  -4.0852  -4.0366  -4.0142
    -4.0046  -3.9904  -3.9667  -3.9486  -3.9290  -3.9108  -3.8386  -3.8216
    -3.7447  -3.7380  -3.7304  -3.6679  -3.5079  -3.4915  -3.4665  -3.4447
    -3.4248  -3.3301  -3.3251  -3.3117  -3.3000  -3.2779  -3.2331  -3.2170
    -3.1868  -3.1805  -3.1311  -3.0766  -2.9261  -2.9069  -2.8735  -2.8718
    -2.8166  -2.6938  -2.6118  -2.5991  -0.3919  -0.3643  -0.3225  -0.2061
     0.3904   0.4435   0.4987   0.6172   0.6368   0.7233   0.8575   0.8902
     0.9372   0.9982   1.0227   1.0258   1.0530   1.1199   1.1865   1.3265
     1.3901   1.4717   1.5383   1.5716   1.8347   1.9208   2.0001   2.0095
     2.1866   2.2489   2.2829   2.2845   2.4474   2.5999   2.6261   2.6345
     2.6576   2.7718   2.9542   3.0256   3.0387   3.0900   3.1374   3.2163
     3.2480   3.3669   3.4062   3.4234   3.4589   3.4873   3.6279   3.6803
     3.7172   3.8083   3.8772   3.9992   4.0181   4.0196   4.0559   4.1771
     4.2036   4.2115   4.2574   4.2962   4.3743   4.3855   4.4550   4.4726
     4.4857   4.4996   4.6455   4.6571   4.7017   4.7050   4.7185   4.8304
     4.8519   4.8732   4.9550   4.9863

          k = 0.0625 0.5413-0.2308 ( 96066 PWs)   bands (ev):

  -113.6390-113.6381-113.6380-113.6376 -71.1139 -71.1134 -71.1130 -71.1127
   -71.1098 -71.1086 -71.1086 -71.1080 -70.9379 -70.9372 -70.9371 -70.9368
   -22.1170 -22.1051 -22.0635 -22.0478 -21.7513 -21.7472 -21.7361 -21.7330
   -21.5976 -21.5953 -21.5678 -21.5589 -21.3397 -21.3130 -21.2754 -21.2570
   -18.1389 -18.1228 -18.0565 -18.0397 -17.2255 -17.2224 -17.2222 -17.2188
   -16.8036 -16.7976 -16.7931 -16.7898 -16.6678 -16.6399 -16.5375 -16.5228
   -16.5142 -16.5135 -16.5123 -16.5121 -16.5108 -16.5101 -16.5041 -16.5026
   -16.4740 -16.4689 -16.4089 -16.3732 -15.6543 -15.6134 -15.4403 -15.3926
   -15.3794 -15.3471 -15.2056 -15.1922 -14.9574 -14.9221 -14.7631 -14.7157
   -14.6717 -14.6477 -14.5770 -14.5667 -12.1774 -12.1146 -11.8652 -11.7995
   -10.4715 -10.4190 -10.1591 -10.0821  -9.9117  -9.9085  -9.8580  -9.8507
    -9.8189  -9.8123  -9.7481  -9.7361  -9.6865  -9.6847  -9.5506  -9.5470
    -9.2662  -9.2562  -9.0991  -9.0923  -8.9674  -8.9363  -8.7404  -8.6583
    -8.2500  -8.2313  -8.2097  -8.2062  -7.8628  -7.8599  -7.8357  -7.8088
    -7.7817  -7.7405  -7.6411  -7.6389  -7.1723  -7.1512  -7.1168  -7.0717
    -7.0338  -6.9543  -6.9455  -6.8782  -6.5637  -6.5549  -6.5032  -6.4991
    -6.4857  -6.4717  -6.4068  -6.3996  -6.2280  -6.1479  -5.9864  -5.9359
    -5.8279  -5.8041  -5.6748  -5.6575  -5.6510  -5.5967  -5.5247  -5.4917
    -5.4792  -5.4297  -5.3493  -5.3085  -5.3041  -5.2978  -5.2466  -5.2090
    -5.1566  -5.1437  -5.1342  -5.1204  -4.9975  -4.9938  -4.8964  -4.8931
    -4.8511  -4.8054  -4.7314  -4.7291  -4.4660  -4.4572  -4.4258  -4.3838
    -4.3204  -4.3168  -4.2959  -4.2926  -4.2413  -4.2333  -4.1554  -4.1379
    -4.1321  -4.1285  -4.1011  -4.0948  -4.0879  -4.0838  -3.9996  -3.9950
    -3.9809  -3.9806  -3.9571  -3.9524  -3.9221  -3.9185  -3.8329  -3.8238
    -3.7932  -3.7901  -3.7527  -3.7318  -3.4641  -3.4625  -3.4556  -3.4399
    -3.3756  -3.3447  -3.3311  -3.3307  -3.3124  -3.2864  -3.2779  -3.2138
    -3.1512  -3.1254  -3.1096  -3.0572  -2.9688  -2.9582  -2.9217  -2.9126
    -2.7961  -2.7088  -2.6941  -2.5977  -0.3844  -0.3340  -0.2719  -0.2343
     0.3324   0.4083   0.5656   0.5889   0.5921   0.7153   0.8770   0.9263
     1.0112   1.0143   1.0161   1.0400   1.0702   1.1302   1.2905   1.3387
     1.3425   1.4120   1.5280   1.5568   1.8237   1.9383   2.0699   2.0702
     2.1968   2.2063   2.2606   2.2637   2.4774   2.5133   2.5702   2.5727
     2.6534   2.6687   2.9377   3.0584   3.0746   3.0980   3.1585   3.2113
     3.3548   3.3580   3.3961   3.4130   3.5067   3.5736   3.6074   3.6567
     3.6579   3.6793   3.9587   3.9736   3.9944   4.0969   4.0985   4.1127
     4.1621   4.2398   4.2665   4.2765   4.3320   4.4131   4.5183   4.5244
     4.5346   4.5565   4.6224   4.6768   4.6772   4.6854   4.8188   4.8423
     4.8668   4.8686   4.9815   5.0084

          k = 0.0625-0.4691-0.2308 ( 96096 PWs)   bands (ev):

  -113.6390-113.6381-113.6380-113.6376 -71.1139 -71.1134 -71.1130 -71.1127
   -71.1098 -71.1086 -71.1086 -71.1080 -70.9379 -70.9372 -70.9371 -70.9368
   -22.1313 -22.0883 -22.0679 -22.0410 -21.7820 -21.7639 -21.7190 -21.7064
   -21.5966 -21.5918 -21.5665 -21.5641 -21.3307 -21.3223 -21.2891 -21.2449
   -18.1544 -18.1068 -18.0562 -18.0398 -17.2261 -17.2257 -17.2234 -17.2144
   -16.8002 -16.7976 -16.7953 -16.7838 -16.6945 -16.6159 -16.5379 -16.5242
   -16.5143 -16.5136 -16.5125 -16.5124 -16.5122 -16.5081 -16.5043 -16.5018
   -16.4775 -16.4621 -16.4087 -16.3758 -15.6592 -15.6251 -15.4969 -15.3859
   -15.3323 -15.3230 -15.2246 -15.1729 -14.9573 -14.9304 -14.8035 -14.6756
   -14.6696 -14.6440 -14.5907 -14.5529 -12.2415 -12.0536 -11.8666 -11.8018
   -10.5220 -10.3670 -10.1614 -10.0878  -9.9135  -9.9059  -9.8677  -9.8412
    -9.8192  -9.8150  -9.7505  -9.7282  -9.6884  -9.6835  -9.5580  -9.5405
    -9.2840  -9.2401  -9.1135  -9.0778  -8.9963  -8.9076  -8.7464  -8.6768
    -8.2528  -8.2278  -8.1900  -8.1708  -7.8945  -7.8863  -7.8339  -7.8020
    -7.7504  -7.7104  -7.6263  -7.6251  -7.2026  -7.2014  -7.0944  -7.0287
    -7.0116  -6.9446  -6.9408  -6.8840  -6.6012  -6.5588  -6.5504  -6.5462
    -6.4550  -6.4296  -6.4091  -6.4081  -6.2249  -6.1495  -6.0058  -5.9248
    -5.8411  -5.8046  -5.7081  -5.6901  -5.6343  -5.5733  -5.5569  -5.4602
    -5.4562  -5.4435  -5.3671  -5.3347  -5.2860  -5.2831  -5.2544  -5.2109
    -5.1472  -5.1451  -5.1348  -5.1340  -4.9893  -4.9498  -4.9226  -4.8884
    -4.8849  -4.7717  -4.7258  -4.6989  -4.4713  -4.4586  -4.4386  -4.3777
    -4.3225  -4.3158  -4.2943  -4.2906  -4.2506  -4.2317  -4.1742  -4.1556
    -4.1385  -4.1127  -4.0972  -4.0954  -4.0884  -4.0834  -4.0206  -3.9955
    -3.9928  -3.9801  -3.9631  -3.9555  -3.9255  -3.9150  -3.8307  -3.8257
    -3.7747  -3.7505  -3.7382  -3.7281  -3.4970  -3.4723  -3.4477  -3.4241
    -3.3986  -3.3708  -3.3288  -3.3138  -3.2890  -3.2755  -3.2738  -3.2335
    -3.1508  -3.1411  -3.1053  -3.0819  -2.9700  -2.9606  -2.8862  -2.8746
    -2.8007  -2.7027  -2.6727  -2.5974  -0.3859  -0.3251  -0.3215  -0.2137
     0.3428   0.4351   0.5393   0.5858   0.5979   0.7506   0.8471   0.9318
     0.9624   1.0141   1.0272   1.0579   1.0841   1.0927   1.2196   1.3392
     1.3941   1.4296   1.5350   1.5568   1.8363   1.9175   2.0367   2.0387
     2.1752   2.2513   2.2595   2.2750   2.4579   2.5876   2.5955   2.5978
     2.5991   2.7423   2.9534   3.0310   3.0604   3.1086   3.1154   3.2010
     3.2998   3.4113   3.4157   3.4190   3.4528   3.5402   3.6198   3.6499
     3.6696   3.7606   3.9246   3.9691   4.0226   4.0840   4.1411   4.1510
     4.1941   4.1952   4.1967   4.3304   4.3354   4.3371   4.4805   4.4996
     4.5029   4.5411   4.6627   4.6758   4.6763   4.6923   4.8117   4.8208
     4.8613   4.8843   4.9275   4.9937

          k = 0.0625-0.3248-0.2308 ( 96052 PWs)   bands (ev):

  -113.6390-113.6381-113.6380-113.6376 -71.1139 -71.1134 -71.1130 -71.1127
   -71.1098 -71.1086 -71.1086 -71.1080 -70.9379 -70.9372 -70.9371 -70.9368
   -22.1518 -22.0689 -22.0580 -22.0336 -21.8101 -21.7939 -21.6994 -21.6818
   -21.6213 -21.6157 -21.5350 -21.5276 -21.3380 -21.3255 -21.3241 -21.2209
   -18.1815 -18.0774 -18.0543 -18.0408 -17.2302 -17.2293 -17.2275 -17.2051
   -16.8028 -16.7873 -16.7835 -16.7733 -16.7455 -16.5770 -16.5414 -16.5293
   -16.5154 -16.5136 -16.5135 -16.5133 -16.5131 -16.5050 -16.5036 -16.5008
   -16.4819 -16.4414 -16.4095 -16.3849 -15.6844 -15.6580 -15.6025 -15.3445
   -15.2970 -15.2509 -15.2192 -15.1421 -14.9678 -14.9489 -14.8858 -14.6564
   -14.6357 -14.6109 -14.5982 -14.5312 -12.3601 -11.9485 -11.8689 -11.8150
   -10.6104 -10.2717 -10.1711 -10.1123  -9.9167  -9.8991  -9.8829  -9.8294
    -9.8269  -9.8189  -9.7385  -9.7128  -9.6927  -9.6827  -9.5726  -9.5374
    -9.2982  -9.2272  -9.1313  -9.0600  -9.0461  -8.8572  -8.7790  -8.7318
    -8.2096  -8.1996  -8.1244  -8.1193  -7.9530  -7.8950  -7.8256  -7.8111
    -7.6646  -7.6198  -7.5796  -7.5676  -7.3164  -7.2536  -7.0096  -7.0037
    -6.9317  -6.9312  -6.9193  -6.8911  -6.6561  -6.6122  -6.6036  -6.5969
    -6.5353  -6.5328  -6.3786  -6.3647  -6.2721  -6.0783  -6.0622  -5.8877
    -5.8751  -5.8454  -5.8141  -5.6900  -5.6274  -5.6242  -5.5303  -5.4958
    -5.4630  -5.4281  -5.3617  -5.3414  -5.2849  -5.2844  -5.2654  -5.2077
    -5.1418  -5.1326  -5.1299  -5.1191  -4.9444  -4.9366  -4.9155  -4.9061
    -4.8952  -4.7092  -4.6747  -4.6455  -4.4817  -4.4786  -4.4767  -4.3448
    -4.3285  -4.3135  -4.2933  -4.2869  -4.2615  -4.2384  -4.2045  -4.1628
    -4.1516  -4.1423  -4.1125  -4.1012  -4.0930  -4.0914  -4.0483  -4.0284
    -4.0185  -4.0033  -3.9711  -3.9489  -3.9308  -3.9074  -3.8386  -3.8248
    -3.7452  -3.7241  -3.7234  -3.5896  -3.5420  -3.5244  -3.4770  -3.4413
    -3.4026  -3.3394  -3.3208  -3.3044  -3.2907  -3.2753  -3.2529  -3.2432
    -3.1572  -3.1538  -3.1440  -3.1217  -2.9493  -2.8637  -2.8624  -2.8218
    -2.7206  -2.7085  -2.6149  -2.5603  -0.4714  -0.3668  -0.2935  -0.2148
     0.4119   0.4504   0.5080   0.6066   0.6297   0.7788   0.8141   0.8582
     0.8946   1.0022   1.0086   1.0251   1.0768   1.0898   1.1113   1.4029
     1.4269   1.4332   1.5590   1.5823   1.8464   1.8925   1.9475   1.9661
     2.2213   2.2653   2.3037   2.3052   2.4308   2.5900   2.6702   2.6866
     2.7211   2.8517   2.9746   3.0007   3.0259   3.0644   3.1336   3.1822
     3.2207   3.3657   3.3826   3.4382   3.4534   3.4596   3.5985   3.6449
     3.7415   3.8636   3.9737   3.9767   3.9826   4.0003   4.0784   4.1180
     4.2063   4.2404   4.2416   4.3033   4.3342   4.3689   4.4302   4.4453
     4.4766   4.5364   4.6011   4.6095   4.6353   4.6751   4.6988   4.8050
     4.8265   4.8797   4.9513   4.9789

          k = 0.0625-0.1804-0.2308 ( 96040 PWs)   bands (ev):

  -113.6390-113.6381-113.6380-113.6376 -71.1139 -71.1134 -71.1130 -71.1127
   -71.1098 -71.1086 -71.1086 -71.1080 -70.9379 -70.9372 -70.9371 -70.9368
   -22.1654 -22.0673 -22.0313 -22.0283 -21.8300 -21.8188 -21.6935 -21.6651
   -21.6393 -21.6266 -21.5036 -21.4920 -21.3594 -21.3579 -21.3220 -21.2049
   -18.2005 -18.0557 -18.0512 -18.0427 -17.2331 -17.2328 -17.2320 -17.1966
   -16.8057 -16.7836 -16.7711 -16.7688 -16.7640 -16.5553 -16.5459 -16.5374
   -16.5162 -16.5142 -16.5141 -16.5139 -16.5134 -16.5026 -16.5025 -16.5002
   -16.4841 -16.4172 -16.4097 -16.3964 -15.7070 -15.6902 -15.6804 -15.2973
   -15.2674 -15.2669 -15.1456 -15.1177 -14.9798 -14.9681 -14.9497 -14.6406
   -14.6292 -14.6246 -14.5412 -14.5159 -12.4500 -11.8752 -11.8685 -11.8336
   -10.6722 -10.2020 -10.1793 -10.1439  -9.9184  -9.8938  -9.8931  -9.8378
    -9.8241  -9.8171  -9.7209  -9.6987  -9.6961  -9.6832  -9.5882  -9.5398
    -9.3060  -9.2194  -9.1431  -9.0832  -9.0441  -8.8249  -8.8098  -8.7852
    -8.1563  -8.1401  -8.1069  -8.0624  -8.0054  -7.8346  -7.8194  -7.8030
    -7.5833  -7.5443  -7.5405  -7.4923  -7.3984  -7.2879  -6.9530  -6.9311
    -6.9226  -6.9164  -6.8831  -6.8819  -6.7089  -6.6966  -6.6693  -6.6553
    -6.6445  -6.6429  -6.3809  -6.3374  -6.2590  -6.1372  -5.9801  -5.9145
    -5.9030  -5.9012  -5.8497  -5.6797  -5.6543  -5.6425  -5.5555  -5.5309
    -5.4707  -5.4701  -5.3316  -5.3084  -5.3036  -5.2957  -5.2623  -5.2235
    -5.1245  -5.1194  -5.1128  -5.1067  -4.9243  -4.9230  -4.9118  -4.8779
    -4.8768  -4.6624  -4.6267  -4.6183  -4.4953  -4.4836  -4.4739  -4.3321
    -4.3221  -4.3115  -4.2918  -4.2776  -4.2678  -4.2612  -4.2037  -4.1897
    -4.1693  -4.1594  -4.1302  -4.1285  -4.1001  -4.0970  -4.0752  -4.0703
    -4.0390  -4.0377  -3.9786  -3.9365  -3.9339  -3.9006  -3.8488  -3.8260
    -3.7472  -3.7359  -3.7336  -3.5790  -3.5570  -3.5348  -3.4893  -3.4357
    -3.3681  -3.3496  -3.3153  -3.3080  -3.2890  -3.2579  -3.2570  -3.2021
    -3.1765  -3.1737  -3.1499  -3.0785  -2.8996  -2.8588  -2.8367  -2.7276
    -2.7049  -2.6440  -2.5506  -2.4842  -0.6341  -0.3344  -0.2707  -0.2550
     0.3406   0.5009   0.5787   0.5990   0.6505   0.7090   0.7212   0.8360
     0.8732   0.9169   1.0260   1.0677   1.0772   1.0798   1.0943   1.3765
     1.4972   1.5072   1.5547   1.5910   1.8509   1.8737   1.8898   1.9163
     2.2828   2.3250   2.3454   2.3686   2.3805   2.5935   2.7094   2.7122
     2.7326   2.9856   3.0229   3.0288   3.0408   3.1035   3.1449   3.1679
     3.2463   3.3059   3.3304   3.3731   3.4267   3.4447   3.6011   3.6203
     3.6466   3.8039   3.8677   3.9361   3.9372   4.0911   4.1119   4.1560
     4.1845   4.2608   4.2732   4.3003   4.3938   4.3969   4.4117   4.4119
     4.4576   4.5200   4.5361   4.5736   4.5859   4.6232   4.6503   4.7748
     4.7836   4.8302   4.8429   4.9233

          k = 0.0625-0.0361-0.2308 ( 95996 PWs)   bands (ev):

  -113.6390-113.6381-113.6380-113.6376 -71.1139 -71.1134 -71.1130 -71.1127
   -71.1098 -71.1086 -71.1086 -71.1080 -70.9379 -70.9372 -70.9371 -70.9368
   -22.1713 -22.0644 -22.0284 -22.0173 -21.8365 -21.8307 -21.6963 -21.6590
   -21.6487 -21.6303 -21.4800 -21.4639 -21.3823 -21.3803 -21.3186 -21.1977
   -18.2091 -18.0478 -18.0458 -18.0454 -17.2353 -17.2348 -17.2332 -17.1921
   -16.8057 -16.8026 -16.7609 -16.7605 -16.7594 -16.5470 -16.5465 -16.5451
   -16.5166 -16.5145 -16.5143 -16.5141 -16.5135 -16.5019 -16.5013 -16.5001
   -16.4849 -16.4070 -16.4058 -16.4030 -15.7172 -15.7137 -15.7100 -15.2724
   -15.2673 -15.2581 -15.1164 -15.1017 -14.9825 -14.9816 -14.9814 -14.6305
   -14.6302 -14.6283 -14.5135 -14.5098 -12.4926 -11.8615 -11.8509 -11.8423
   -10.6999 -10.1762 -10.1699 -10.1692  -9.9193  -9.8984  -9.8900  -9.8423
    -9.8264  -9.8129  -9.7073  -9.6988  -9.6918  -9.6838  -9.5988  -9.5429
    -9.3066  -9.2176  -9.1478  -9.0985  -9.0384  -8.8195  -8.8174  -8.8113
    -8.1210  -8.1126  -8.0990  -8.0439  -8.0152  -7.8138  -7.7973  -7.7876
    -7.5387  -7.5207  -7.5140  -7.4458  -7.4321  -7.3027  -6.9453  -6.9064
    -6.8857  -6.8798  -6.8695  -6.8590  -6.7716  -6.7447  -6.7402  -6.7233
    -6.7007  -6.6507  -6.4063  -6.3182  -6.2454  -6.1679  -5.9447  -5.9337
    -5.9226  -5.9147  -5.8480  -5.6737  -5.6714  -5.6613  -5.5788  -5.5539
    -5.4910  -5.4703  -5.3225  -5.3139  -5.3016  -5.2797  -5.2559  -5.2387
    -5.1213  -5.1133  -5.1044  -5.0979  -4.9293  -4.9065  -4.8839  -4.8819
    -4.8532  -4.6346  -4.6288  -4.6107  -4.4917  -4.4691  -4.4623  -4.3331
    -4.3144  -4.3067  -4.2904  -4.2865  -4.2628  -4.2503  -4.2090  -4.1842
    -4.1806  -4.1695  -4.1613  -4.1338  -4.1330  -4.1152  -4.0923  -4.0785
    -4.0623  -4.0431  -3.9822  -3.9355  -3.9283  -3.8970  -3.8565  -3.8268
    -3.7561  -3.7507  -3.7499  -3.5963  -3.5668  -3.5618  -3.4625  -3.4225
    -3.4024  -3.3256  -3.3213  -3.3174  -3.2657  -3.2551  -3.2533  -3.1970
    -3.1943  -3.1916  -3.0618  -3.0510  -2.8700  -2.8618  -2.8291  -2.6887
    -2.6730  -2.6674  -2.4583  -2.4412  -0.7329  -0.3044  -0.2882  -0.2702
     0.2710   0.5748   0.5802   0.6089   0.6344   0.6420   0.6539   0.8633
     0.8666   0.8768   1.0650   1.0738   1.0837   1.0856   1.0907   1.3703
     1.5365   1.5472   1.5553   1.5829   1.8370   1.8681   1.8932   1.9017
     2.2985   2.3229   2.3864   2.4170   2.4233   2.5846   2.6764   2.6922
     2.6949   3.0122   3.0536   3.0862   3.0885   3.0891   3.2294   3.2468
     3.2509   3.2784   3.3449   3.3482   3.4133   3.4259   3.5634   3.5778
     3.6096   3.7187   3.7267   3.7918   3.9204   4.1079   4.2063   4.2259
     4.2623   4.2662   4.3325   4.3368   4.3579   4.3877   4.4088   4.4165
     4.4340   4.4858   4.4941   4.5703   4.5816   4.5881   4.6772   4.7180
     4.7618   4.7831   4.8310   4.9088

          k = 0.1875 0.3248-0.2308 ( 96062 PWs)   bands (ev):

  -113.6390-113.6381-113.6380-113.6376 -71.1139 -71.1134 -71.1130 -71.1127
   -71.1098 -71.1086 -71.1086 -71.1080 -70.9379 -70.9372 -70.9371 -70.9368
   -22.1452 -22.0706 -22.0600 -22.0460 -21.7731 -21.7723 -21.7257 -21.7027
   -21.6452 -21.6395 -21.5089 -21.4813 -21.3829 -21.3372 -21.2916 -21.2234
   -18.1737 -18.0736 -18.0731 -18.0348 -17.2303 -17.2282 -17.2241 -17.2083
   -16.8011 -16.7959 -16.7823 -16.7806 -16.7309 -16.5656 -16.5647 -16.5209
   -16.5155 -16.5141 -16.5136 -16.5126 -16.5126 -16.5056 -16.5042 -16.5018
   -16.4810 -16.4378 -16.4351 -16.3659 -15.6921 -15.6057 -15.5976 -15.3712
   -15.2736 -15.2673 -15.2452 -15.1556 -14.9795 -14.8988 -14.8899 -14.6689
   -14.6194 -14.6187 -14.6161 -14.5386 -12.3253 -11.9373 -11.9304 -11.7887
   -10.5848 -10.2476 -10.2470 -10.0754  -9.9118  -9.8921  -9.8683  -9.8418
    -9.8204  -9.8146  -9.7402  -9.7146  -9.6884  -9.6833  -9.5998  -9.5691
    -9.2424  -9.2339  -9.1320  -9.0736  -9.0334  -8.8381  -8.8292  -8.6798
    -8.2364  -8.2189  -8.1499  -8.0963  -7.9560  -7.9261  -7.8178  -7.7972
    -7.6881  -7.6305  -7.6186  -7.6006  -7.2746  -7.2453  -7.0590  -7.0281
    -6.9941  -6.9169  -6.8983  -6.8538  -6.5924  -6.5840  -6.5697  -6.5255
    -6.5118  -6.4959  -6.4703  -6.4033  -6.3034  -6.1155  -5.9745  -5.8732
    -5.8369  -5.8141  -5.8113  -5.6894  -5.6430  -5.6196  -5.5577  -5.5367
    -5.4620  -5.3886  -5.3779  -5.3114  -5.2978  -5.2592  -5.2503  -5.2174
    -5.1403  -5.1312  -5.1306  -5.1192  -4.9653  -4.9447  -4.9117  -4.9081
    -4.8996  -4.7096  -4.7030  -4.6981  -4.4809  -4.4754  -4.4641  -4.3400
    -4.3275  -4.3088  -4.2989  -4.2931  -4.2336  -4.2158  -4.1978  -4.1801
    -4.1406  -4.1114  -4.1049  -4.1022  -4.0956  -4.0950  -4.0487  -4.0347
    -4.0043  -3.9910  -3.9763  -3.9496  -3.9280  -3.9021  -3.8559  -3.8292
    -3.7534  -3.7286  -3.7148  -3.6380  -3.5234  -3.4972  -3.4762  -3.4332
    -3.4063  -3.3687  -3.3347  -3.3147  -3.3060  -3.2593  -3.2377  -3.2194
    -3.2006  -3.1663  -3.1299  -3.0791  -2.9358  -2.8815  -2.8813  -2.8025
    -2.7995  -2.7798  -2.5712  -2.5647  -0.4225  -0.3835  -0.2546  -0.2414
     0.3699   0.4743   0.5309   0.5793   0.5804   0.8102   0.8507   0.8740
     0.9714   0.9783   1.0016   1.0578   1.0624   1.0685   1.1167   1.3134
     1.3971   1.5021   1.5453   1.5620   1.8149   1.9576   1.9679   2.0004
     2.2381   2.2692   2.2804   2.2899   2.4243   2.6027   2.6142   2.6837
     2.6997   2.8515   2.8589   3.0096   3.0403   3.0585   3.2139   3.2187
     3.2419   3.3368   3.3914   3.4706   3.4832   3.5083   3.6529   3.6594
     3.6679   3.8746   3.8886   3.8979   3.9830   3.9949   4.0417   4.0622
     4.2317   4.2648   4.2734   4.2832   4.3697   4.4269   4.4288   4.4735
     4.4949   4.5326   4.6001   4.6384   4.7162   4.7281   4.7521   4.7706
     4.8282   4.8878   4.9132   4.9498

          k = 0.1875 0.4691-0.2308 ( 96084 PWs)   bands (ev):

  -113.6390-113.6381-113.6380-113.6376 -71.1139 -71.1134 -71.1130 -71.1127
   -71.1098 -71.1086 -71.1086 -71.1080 -70.9379 -70.9372 -70.9371 -70.9368
   -22.1239 -22.0891 -22.0809 -22.0371 -21.7534 -21.7423 -21.7394 -21.7309
   -21.6290 -21.6207 -21.5389 -21.5173 -21.3673 -21.3006 -21.2890 -21.2457
   -18.1474 -18.1017 -18.0783 -18.0305 -17.2274 -17.2250 -17.2198 -17.2164
   -16.8073 -16.7970 -16.7915 -16.7899 -16.6814 -16.6018 -16.5651 -16.5161
   -16.5147 -16.5131 -16.5128 -16.5126 -16.5111 -16.5088 -16.5057 -16.5018
   -16.4762 -16.4585 -16.4406 -16.3494 -15.6774 -15.5606 -15.5066 -15.4195
   -15.3406 -15.2932 -15.2380 -15.1901 -14.9745 -14.8720 -14.8217 -14.6916
   -14.6865 -14.6211 -14.5940 -14.5603 -12.2122 -12.0327 -11.9493 -11.7631
   -10.4979 -10.3432 -10.2518 -10.0382  -9.9088  -9.8988  -9.8520  -9.8334
    -9.8300  -9.8157  -9.7595  -9.7228  -9.6851  -9.6826  -9.5836  -9.5698
    -9.2520  -9.2258  -9.1134  -9.0939  -8.9821  -8.8857  -8.8238  -8.6058
    -8.2621  -8.2588  -8.2054  -8.1240  -7.9673  -7.8636  -7.7979  -7.7968
    -7.7901  -7.6965  -7.6608  -7.6573  -7.1948  -7.1650  -7.1058  -7.0731
    -7.0329  -6.9793  -6.9213  -6.8340  -6.5582  -6.5392  -6.5180  -6.4898
    -6.4732  -6.4490  -6.4463  -6.4134  -6.2810  -6.0562  -6.0491  -5.9009
    -5.8056  -5.7668  -5.7259  -5.6896  -5.6332  -5.5759  -5.5716  -5.5198
    -5.4670  -5.4069  -5.3734  -5.3127  -5.2878  -5.2679  -5.2532  -5.2086
    -5.1677  -5.1215  -5.1185  -5.1100  -4.9937  -4.9871  -4.9135  -4.8950
    -4.8905  -4.7774  -4.7484  -4.7472  -4.4716  -4.4428  -4.4381  -4.3505
    -4.3210  -4.3103  -4.2986  -4.2937  -4.2296  -4.2113  -4.1758  -4.1650
    -4.1335  -4.1062  -4.1005  -4.0976  -4.0896  -4.0787  -4.0196  -4.0090
    -3.9788  -3.9764  -3.9668  -3.9539  -3.9217  -3.9101  -3.8485  -3.8275
    -3.7709  -3.7649  -3.7582  -3.7344  -3.4959  -3.4601  -3.4596  -3.4519
    -3.4052  -3.3588  -3.3443  -3.3101  -3.3026  -3.2788  -3.2402  -3.1858
    -3.1767  -3.1451  -3.1399  -3.0484  -2.9589  -2.9514  -2.9116  -2.8883
    -2.8402  -2.7640  -2.6484  -2.5319  -0.4133  -0.3094  -0.2775  -0.2314
     0.2823   0.4841   0.5125   0.5354   0.5825   0.8297   0.8624   0.9634
     0.9734   1.0048   1.0165   1.0238   1.1034   1.1246   1.2119   1.2158
     1.3587   1.5116   1.5324   1.5618   1.7593   2.0420   2.0808   2.1037
     2.1799   2.2518   2.2526   2.2624   2.4606   2.5736   2.5787   2.6108
     2.6198   2.6963   2.7928   3.0518   3.0623   3.1172   3.2177   3.2561
     3.3366   3.3483   3.4438   3.4748   3.4795   3.5710   3.6684   3.6790
     3.7099   3.7575   3.8374   3.8382   3.9331   4.0105   4.0152   4.0826
     4.1636   4.2589   4.2597   4.3057   4.3848   4.4367   4.4716   4.4841
     4.5375   4.5647   4.6679   4.7014   4.7065   4.7498   4.8030   4.8056
     4.8289   4.8763   4.9566   4.9845

          k = 0.1875 0.6134-0.2308 ( 96082 PWs)   bands (ev):

  -113.6390-113.6381-113.6380-113.6376 -71.1139 -71.1134 -71.1130 -71.1127
   -71.1098 -71.1086 -71.1086 -71.1080 -70.9379 -70.9372 -70.9371 -70.9368
   -22.1164 -22.0972 -22.0864 -22.0292 -21.7843 -21.7609 -21.7136 -21.7087
   -21.6021 -21.5954 -21.5696 -21.5545 -21.3534 -21.2930 -21.2741 -21.2669
   -18.1326 -18.1169 -18.0795 -18.0295 -17.2265 -17.2232 -17.2196 -17.2189
   -16.8095 -16.7962 -16.7945 -16.7909 -16.6529 -16.6286 -16.5645 -16.5161
   -16.5140 -16.5133 -16.5126 -16.5121 -16.5115 -16.5088 -16.5065 -16.5013
   -16.4719 -16.4667 -16.4407 -16.3461 -15.6714 -15.5543 -15.4485 -15.4337
   -15.3972 -15.2933 -15.2281 -15.2029 -14.9713 -14.8724 -14.7725 -14.7374
   -14.6914 -14.6199 -14.5858 -14.5696 -12.1522 -12.0902 -11.9522 -11.7569
   -10.4475 -10.3958 -10.2522 -10.0300  -9.9045  -9.9035  -9.8478  -9.8344
    -9.8262  -9.8179  -9.7698  -9.7220  -9.6839  -9.6825  -9.5748  -9.5715
    -9.2691  -9.2117  -9.1155  -9.0927  -8.9501  -8.9202  -8.8178  -8.5881
    -8.2832  -8.2377  -8.2365  -8.1225  -7.9675  -7.8282  -7.8273  -7.8247
    -7.7674  -7.7224  -7.6723  -7.6703  -7.1548  -7.1278  -7.1145  -7.0997
    -7.0351  -7.0258  -6.9169  -6.8281  -6.6106  -6.5462  -6.5260  -6.5061
    -6.4612  -6.4059  -6.3952  -6.3850  -6.2222  -6.1386  -5.9834  -5.9631
    -5.8016  -5.7507  -5.6998  -5.6670  -5.6194  -5.6080  -5.5591  -5.5061
    -5.4841  -5.3859  -5.3401  -5.3347  -5.3301  -5.2690  -5.2631  -5.1831
    -5.1780  -5.1354  -5.1135  -5.1060  -4.9953  -4.9713  -4.9459  -4.8799
    -4.8638  -4.8250  -4.7637  -4.7407  -4.4698  -4.4329  -4.3981  -4.3894
    -4.3157  -4.3144  -4.2973  -4.2888  -4.2369  -4.2108  -4.1696  -4.1661
    -4.1245  -4.1178  -4.0960  -4.0941  -4.0883  -4.0696  -4.0050  -4.0012
    -3.9784  -3.9659  -3.9614  -3.9607  -3.9173  -3.9144  -3.8434  -3.8318
    -3.7937  -3.7877  -3.7779  -3.7315  -3.4888  -3.4620  -3.4559  -3.4461
    -3.3740  -3.3658  -3.3526  -3.3075  -3.2939  -3.2923  -3.2739  -3.1882
    -3.1356  -3.1343  -3.0884  -3.0835  -3.0148  -2.9744  -2.9393  -2.8787
    -2.7805  -2.7337  -2.7320  -2.5216  -0.4232  -0.2800  -0.2706  -0.2462
     0.2570   0.4823   0.4907   0.5594   0.5618   0.8247   0.8793   0.9701
     0.9716   1.0129   1.0137   1.0667   1.0950   1.1184   1.2085   1.2433
     1.3615   1.4821   1.5500   1.5660   1.7447   2.0602   2.0935   2.1237
     2.1814   2.2480   2.2526   2.2706   2.4708   2.5420   2.5724   2.5733
     2.6105   2.6826   2.7793   3.0393   3.1125   3.1298   3.1966   3.2429
     3.3910   3.3964   3.4007   3.4325   3.5318   3.6025   3.6248   3.6889
     3.7039   3.7063   3.8152   3.8950   3.9038   3.9829   4.0984   4.1150
     4.1825   4.2479   4.2523   4.2713   4.3142   4.3399   4.4845   4.5107
     4.5402   4.5653   4.6941   4.7060   4.7157   4.7343   4.8160   4.8307
     4.9121   4.9192   4.9437   4.9858

          k = 0.1875-0.3969-0.2308 ( 96040 PWs)   bands (ev):

  -113.6390-113.6381-113.6380-113.6376 -71.1139 -71.1134 -71.1130 -71.1127
   -71.1098 -71.1086 -71.1086 -71.1080 -70.9379 -70.9372 -70.9371 -70.9368
   -22.1391 -22.0867 -22.0674 -22.0234 -21.8120 -21.7900 -21.6918 -21.6831
   -21.5988 -21.5874 -21.5688 -21.5652 -21.3420 -21.3069 -21.3041 -21.2389
   -18.1615 -18.0867 -18.0765 -18.0320 -17.2283 -17.2275 -17.2221 -17.2121
   -16.8015 -16.8005 -16.7879 -16.7833 -16.7062 -16.5838 -16.5646 -16.5192
   -16.5142 -16.5135 -16.5132 -16.5131 -16.5127 -16.5062 -16.5059 -16.5005
   -16.4787 -16.4486 -16.4385 -16.3574 -15.6836 -15.5826 -15.5539 -15.4016
   -15.2937 -15.2720 -15.2628 -15.1670 -14.9742 -14.8888 -14.8526 -14.6799
   -14.6566 -14.6169 -14.6100 -14.5471 -12.2720 -11.9775 -11.9464 -11.7720
   -10.5438 -10.2937 -10.2498 -10.0540  -9.9083  -9.8968  -9.8650  -9.8266
    -9.8259  -9.8182  -9.7643  -9.7121  -9.6866  -9.6819  -9.5839  -9.5667
    -9.2816  -9.2018  -9.1347  -9.0732  -9.0084  -8.8593  -8.8268  -8.6439
    -8.2653  -8.2277  -8.1838  -8.0819  -7.9830  -7.8925  -7.8278  -7.7888
    -7.7535  -7.6521  -7.6388  -7.6265  -7.2245  -7.2137  -7.0864  -7.0459
    -7.0091  -6.9398  -6.9091  -6.8446  -6.6606  -6.5868  -6.5659  -6.5498
    -6.4778  -6.4497  -6.3871  -6.3341  -6.2055  -6.1425  -6.0385  -5.9328
    -5.8232  -5.7782  -5.7717  -5.7061  -5.6278  -5.5875  -5.5474  -5.4742
    -5.4259  -5.4228  -5.3984  -5.3411  -5.2884  -5.2883  -5.2608  -5.1916
    -5.1589  -5.1460  -5.1285  -5.1104  -4.9637  -4.9493  -4.9346  -4.9021
    -4.8973  -4.7611  -4.7168  -4.6945  -4.4733  -4.4570  -4.4448  -4.3631
    -4.3210  -4.3129  -4.2948  -4.2840  -4.2467  -4.2176  -4.1944  -4.1699
    -4.1325  -4.1223  -4.1009  -4.0958  -4.0814  -4.0793  -4.0266  -4.0116
    -3.9949  -3.9827  -3.9736  -3.9667  -3.9230  -3.9077  -3.8387  -3.8376
    -3.7656  -3.7391  -3.7202  -3.7028  -3.5287  -3.4809  -3.4366  -3.4321
    -3.4099  -3.3885  -3.3471  -3.3115  -3.3070  -3.2655  -3.2324  -3.2031
    -3.1672  -3.1594  -3.1327  -3.0835  -2.9701  -2.9090  -2.8720  -2.8652
    -2.8054  -2.7781  -2.6228  -2.5447  -0.4132  -0.3632  -0.2555  -0.2355
     0.3102   0.5094   0.5323   0.5335   0.5605   0.8037   0.9020   0.9060
     0.9793   1.0029   1.0117   1.0351   1.0899   1.1012   1.1144   1.2905
     1.4151   1.4786   1.5547   1.5752   1.7834   1.9899   2.0169   2.0253
     2.2091   2.2553   2.2630   2.2777   2.4526   2.5907   2.6235   2.6415
     2.6640   2.7782   2.8168   3.0180   3.0602   3.0930   3.1758   3.2430
     3.2680   3.3746   3.4262   3.4533   3.4773   3.5080   3.6686   3.7051
     3.7411   3.8267   3.8369   3.9356   3.9453   3.9539   3.9825   4.0659
     4.2405   4.2822   4.2848   4.2891   4.3057   4.4049   4.4393   4.4750
     4.5425   4.5937   4.6246   4.6319   4.7246   4.7328   4.7577   4.7862
     4.8347   4.8433   4.8845   4.9746

          k = 0.1875-0.2526-0.2308 ( 96066 PWs)   bands (ev):

  -113.6390-113.6381-113.6380-113.6376 -71.1139 -71.1134 -71.1130 -71.1127
   -71.1098 -71.1086 -71.1086 -71.1080 -70.9379 -70.9372 -70.9371 -70.9368
   -22.1556 -22.0826 -22.0388 -22.0222 -21.8303 -21.8147 -21.6823 -21.6657
   -21.6237 -21.6116 -21.5330 -21.5318 -21.3406 -21.3317 -21.3229 -21.2182
   -18.1842 -18.0700 -18.0616 -18.0377 -17.2314 -17.2298 -17.2273 -17.2041
   -16.8028 -16.7869 -16.7761 -16.7756 -16.7511 -16.5639 -16.5554 -16.5272
   -16.5154 -16.5139 -16.5137 -16.5134 -16.5132 -16.5050 -16.5033 -16.5002
   -16.4822 -16.4334 -16.4222 -16.3784 -15.6975 -15.6420 -15.6246 -15.3450
   -15.2879 -15.2518 -15.2112 -15.1358 -14.9779 -14.9218 -14.9135 -14.6586
   -14.6286 -14.6161 -14.5900 -14.5299 -12.3733 -11.9308 -11.8892 -11.8037
   -10.6186 -10.2407 -10.2086 -10.1010  -9.9104  -9.8898  -9.8789  -9.8364
    -9.8303  -9.8061  -9.7468  -9.7001  -9.6898  -9.6829  -9.5960  -9.5689
    -9.2868  -9.1972  -9.1485  -9.0601  -9.0499  -8.8388  -8.8122  -8.7227
    -8.2206  -8.1731  -8.1242  -8.1121  -7.9533  -7.8899  -7.8430  -7.7996
    -7.6598  -7.6008  -7.5781  -7.5604  -7.3259  -7.2578  -7.0221  -6.9831
    -6.9568  -6.9067  -6.9057  -6.8764  -6.6749  -6.6498  -6.6165  -6.6005
    -6.5726  -6.5492  -6.3435  -6.3353  -6.2250  -6.1104  -6.0553  -5.9044
    -5.8615  -5.8457  -5.8438  -5.6902  -5.6655  -5.5962  -5.5344  -5.4759
    -5.4696  -5.4472  -5.3516  -5.3303  -5.3176  -5.2770  -5.2738  -5.2010
    -5.1388  -5.1306  -5.1298  -5.1056  -4.9546  -4.9456  -4.9250  -4.8949
    -4.8604  -4.7131  -4.6532  -4.6473  -4.4900  -4.4808  -4.4763  -4.3401
    -4.3271  -4.3115  -4.2929  -4.2848  -4.2564  -4.2391  -4.1925  -4.1748
    -4.1584  -4.1457  -4.1126  -4.1020  -4.0979  -4.0728  -4.0478  -4.0474
    -4.0182  -4.0143  -3.9814  -3.9572  -3.9268  -3.9002  -3.8484  -3.8366
    -3.7495  -3.7232  -3.7160  -3.5731  -3.5589  -3.5128  -3.4897  -3.4350
    -3.3816  -3.3569  -3.3365  -3.3136  -3.3115  -3.2582  -3.2299  -3.2251
    -3.1974  -3.1504  -3.1335  -3.1173  -2.9380  -2.8772  -2.8420  -2.8028
    -2.7360  -2.7108  -2.5977  -2.5421  -0.4926  -0.3765  -0.2658  -0.2289
     0.4119   0.4324   0.5421   0.5927   0.6211   0.7783   0.8098   0.8599
     0.9178   0.9510   0.9970   1.0462   1.0576   1.1052   1.1109   1.3927
     1.3996   1.5032   1.5343   1.5979   1.8234   1.9050   1.9347   1.9617
     2.2662   2.2708   2.2814   2.3080   2.4207   2.6023   2.6981   2.7011
     2.7271   2.8975   2.9567   2.9656   3.0385   3.0598   3.1548   3.1945
     3.2420   3.3241   3.3556   3.4280   3.4446   3.4447   3.6477   3.7123
     3.7260   3.8315   3.8925   3.9462   3.9666   4.0095   4.0530   4.1096
     4.1731   4.2554   4.2706   4.2811   4.3887   4.4283   4.4328   4.4536
     4.4927   4.5339   4.5407   4.5718   4.6597   4.7132   4.7142   4.7604
     4.7700   4.9200   4.9335   4.9520

          k = 0.1875-0.1083-0.2308 ( 96046 PWs)   bands (ev):

  -113.6390-113.6381-113.6380-113.6376 -71.1139 -71.1134 -71.1130 -71.1127
   -71.1098 -71.1086 -71.1086 -71.1080 -70.9379 -70.9372 -70.9371 -70.9368
   -22.1648 -22.0751 -22.0284 -22.0191 -21.8344 -21.8289 -21.6860 -21.6590
   -21.6416 -21.6262 -21.4989 -21.4977 -21.3712 -21.3475 -21.3210 -21.2059
   -18.1978 -18.0611 -18.0462 -18.0458 -17.2335 -17.2322 -17.2304 -17.1981
   -16.8033 -16.7798 -16.7724 -16.7712 -16.7668 -16.5584 -16.5417 -16.5398
   -16.5161 -16.5141 -16.5140 -16.5137 -16.5134 -16.5037 -16.5016 -16.5005
   -16.4838 -16.4244 -16.4012 -16.3993 -15.6983 -15.6975 -15.6629 -15.2999
   -15.2915 -15.2501 -15.1615 -15.1157 -14.9727 -14.9682 -14.9402 -14.6391
   -14.6377 -14.6203 -14.5482 -14.5197 -12.4373 -11.9042 -11.8438 -11.8365
   -10.6629 -10.2183 -10.1556 -10.1549  -9.9114  -9.8871  -9.8845  -9.8442
    -9.8329  -9.7993  -9.7259  -9.6948  -9.6919  -9.6844  -9.6089  -9.5733
    -9.2838  -9.1984  -9.1552  -9.0785  -9.0483  -8.8369  -8.7891  -8.7851
    -8.1731  -8.1404  -8.1075  -8.0860  -7.9848  -7.8586  -7.8106  -7.8044
    -7.5868  -7.5735  -7.5394  -7.5062  -7.3846  -7.2835  -6.9580  -6.9434
    -6.9350  -6.9233  -6.8755  -6.8729  -6.7135  -6.6804  -6.6715  -6.6427
    -6.6372  -6.6334  -6.3756  -6.3163  -6.2203  -6.1628  -5.9765  -5.8985
    -5.8958  -5.8924  -5.8692  -5.6777  -5.6703  -5.6353  -5.5518  -5.5151
    -5.4793  -5.4678  -5.3286  -5.3169  -5.3047  -5.2881  -5.2752  -5.2153
    -5.1241  -5.1221  -5.1155  -5.1055  -4.9389  -4.9249  -4.9078  -4.8724
    -4.8670  -4.6698  -4.6464  -4.6113  -4.4914  -4.4906  -4.4790  -4.3303
    -4.3211  -4.3084  -4.2919  -4.2908  -4.2711  -4.2562  -4.1825  -4.1765
    -4.1735  -4.1553  -4.1263  -4.1115  -4.1020  -4.0910  -4.0743  -4.0721
    -4.0460  -4.0279  -3.9869  -3.9458  -3.9293  -3.8946  -3.8588  -3.8366
    -3.7390  -3.7384  -3.7306  -3.5819  -3.5378  -3.5316  -3.5005  -3.4268
    -3.3717  -3.3525  -3.3184  -3.3116  -3.2831  -3.2668  -3.2649  -3.1839
    -3.1787  -3.1690  -3.1662  -3.0916  -2.8858  -2.8848  -2.8291  -2.7669
    -2.6664  -2.6572  -2.5838  -2.4927  -0.6064  -0.3201  -0.3075  -0.2309
     0.3555   0.5176   0.5236   0.6122   0.6709   0.6852   0.7676   0.8518
     0.8564   0.9203   1.0258   1.0371   1.0780   1.1001   1.1006   1.3790
     1.4927   1.5056   1.5374   1.5924   1.8360   1.8556   1.9192   1.9257
     2.2828   2.2919   2.3570   2.3629   2.3718   2.6038   2.7017   2.7389
     2.7428   2.9366   3.0095   3.0483   3.0701   3.0961   3.1347   3.2013
     3.2079   3.3151   3.3448   3.3530   3.3841   3.4403   3.6172   3.6265
     3.6316   3.8852   3.9061   3.9082   3.9469   4.0615   4.1015   4.1961
     4.2029   4.2327   4.2430   4.3299   4.3699   4.3824   4.3933   4.4098
     4.4267   4.5439   4.5563   4.5720   4.6068   4.6404   4.6866   4.7254
     4.7781   4.8574   4.9195   4.9203

          k = 0.3125 0.5413-0.2308 ( 96108 PWs)   bands (ev):

  -113.6390-113.6381-113.6380-113.6376 -71.1139 -71.1134 -71.1130 -71.1127
   -71.1098 -71.1086 -71.1086 -71.1080 -70.9379 -70.9372 -70.9371 -70.9368
   -22.1054 -22.1012 -22.0979 -22.0227 -21.7844 -21.7598 -21.7111 -21.7086
   -21.6319 -21.6224 -21.5401 -21.5150 -21.3763 -21.2957 -21.2677 -21.2655
   -18.1205 -18.1066 -18.1061 -18.0259 -17.2250 -17.2234 -17.2222 -17.2168
   -16.8131 -16.7958 -16.7946 -16.7938 -16.6320 -16.6068 -16.6053 -16.5143
   -16.5137 -16.5135 -16.5124 -16.5118 -16.5099 -16.5089 -16.5085 -16.5012
   -16.4683 -16.4618 -16.4607 -16.3340 -15.6754 -15.4777 -15.4741 -15.4528
   -15.4297 -15.2479 -15.2471 -15.2294 -14.9748 -14.8055 -14.8031 -14.7641
   -14.7002 -14.5944 -14.5937 -14.5828 -12.1039 -12.0539 -12.0493 -11.7400
   -10.4049 -10.3536 -10.3529 -10.0086  -9.8965  -9.8897  -9.8446  -9.8255
    -9.8164  -9.8153  -9.7886  -9.7144  -9.6793  -9.6775  -9.6212  -9.6049
    -9.2398  -9.1743  -9.1257  -9.1147  -8.9239  -8.8917  -8.8867  -8.5454
    -8.2752  -8.2707  -8.2503  -8.0779  -8.0238  -7.8659  -7.7967  -7.7737
    -7.7724  -7.7176  -7.7165  -7.7079  -7.1481  -7.1433  -7.1017  -7.0965
    -7.0344  -6.9880  -6.9875  -6.7980  -6.6275  -6.5384  -6.5083  -6.4705
    -6.4289  -6.4263  -6.4065  -6.3720  -6.2648  -6.0555  -6.0437  -5.9302
    -5.7418  -5.7235  -5.7077  -5.6852  -5.6573  -5.5810  -5.5684  -5.5407
    -5.5085  -5.4041  -5.3236  -5.3198  -5.3163  -5.2517  -5.2466  -5.2093
    -5.1972  -5.0991  -5.0951  -5.0920  -5.0036  -4.9820  -4.9754  -4.8546
    -4.8385  -4.8287  -4.8036  -4.7943  -4.4697  -4.4156  -4.3959  -4.3796
    -4.3141  -4.3066  -4.2976  -4.2950  -4.2030  -4.1843  -4.1701  -4.1645
    -4.1535  -4.1181  -4.1078  -4.0969  -4.0780  -4.0545  -4.0238  -4.0088
    -3.9669  -3.9664  -3.9602  -3.9582  -3.9106  -3.9046  -3.8653  -3.8407
    -3.7950  -3.7909  -3.7753  -3.7724  -3.4716  -3.4697  -3.4676  -3.4585
    -3.3733  -3.3655  -3.3611  -3.3000  -3.2820  -3.2798  -3.2680  -3.1721
    -3.1505  -3.1380  -3.0870  -3.0778  -3.0233  -2.9936  -2.9835  -2.8616
    -2.7752  -2.7532  -2.7199  -2.4914  -0.4316  -0.2642  -0.2580  -0.2555
     0.2228   0.4579   0.5153   0.5433   0.5464   0.8189   0.9590   0.9649
     0.9841   1.0132   1.0250   1.0323   1.0687   1.1503   1.2216   1.2240
     1.2810   1.5441   1.5460   1.5490   1.7069   2.1437   2.1551   2.1636
     2.2183   2.2240   2.2552   2.2583   2.5003   2.5300   2.5537   2.5563
     2.6233   2.6642   2.6662   3.0327   3.1382   3.1740   3.2004   3.3011
     3.3943   3.4034   3.4190   3.4273   3.5862   3.6437   3.6588   3.6827
     3.7085   3.7335   3.7744   3.8426   3.8489   3.8615   4.0301   4.1637
     4.1668   4.1924   4.2589   4.2686   4.2848   4.3683   4.4036   4.5568
     4.5626   4.5955   4.6101   4.7032   4.7456   4.7719   4.8201   4.8602
     4.9434   4.9670   5.0035   5.0068

          k = 0.3125 0.6856-0.2308 ( 96126 PWs)   bands (ev):

  -113.6390-113.6381-113.6380-113.6376 -71.1139 -71.1134 -71.1130 -71.1128
   -71.1098 -71.1086 -71.1086 -71.1080 -70.9379 -70.9372 -70.9371 -70.9368
   -22.1217 -22.1070 -22.0732 -22.0161 -21.8120 -21.7882 -21.6858 -21.6844
   -21.6046 -21.5958 -21.5715 -21.5529 -21.3599 -21.2947 -21.2737 -21.2641
   -18.1347 -18.1049 -18.0918 -18.0273 -17.2257 -17.2253 -17.2192 -17.2180
   -16.8105 -16.7974 -16.7922 -16.7917 -16.6560 -16.6054 -16.5854 -16.5144
   -16.5136 -16.5132 -16.5131 -16.5129 -16.5121 -16.5089 -16.5064 -16.5006
   -16.4725 -16.4607 -16.4519 -16.3396 -15.6765 -15.5205 -15.4871 -15.4423
   -15.3863 -15.2754 -15.2386 -15.2038 -14.9734 -14.8360 -14.8120 -14.7294
   -14.6962 -14.6098 -14.5932 -14.5700 -12.1616 -12.0498 -11.9929 -11.7466
   -10.4530 -10.3494 -10.3025 -10.0188  -9.8943  -9.8902  -9.8407  -9.8348
    -9.8301  -9.7979  -9.7913  -9.7105  -9.6788  -9.6780  -9.6151  -9.6087
    -9.2513  -9.1657  -9.1458  -9.0954  -8.9532  -8.8906  -8.8550  -8.5696
    -8.2770  -8.2591  -8.2368  -8.0863  -8.0042  -7.8440  -7.8279  -7.7951
    -7.7805  -7.7034  -7.6888  -7.6797  -7.1570  -7.1350  -7.1045  -7.0880
    -7.0700  -6.9844  -6.9417  -6.7984  -6.6857  -6.5670  -6.5434  -6.4652
    -6.4497  -6.4003  -6.3990  -6.3232  -6.2031  -6.1121  -6.0017  -5.9983
    -5.7478  -5.7341  -5.7304  -5.7102  -5.6166  -5.6154  -5.5470  -5.5118
    -5.4808  -5.3870  -5.3434  -5.3400  -5.3276  -5.2760  -5.2324  -5.2045
    -5.1980  -5.1148  -5.1054  -5.0949  -4.9974  -4.9795  -4.9313  -4.8897
    -4.8734  -4.7868  -4.7731  -4.7709  -4.4687  -4.4171  -4.4157  -4.3811
    -4.3130  -4.3105  -4.2976  -4.2891  -4.2061  -4.1885  -4.1879  -4.1609
    -4.1438  -4.1140  -4.1121  -4.1081  -4.0671  -4.0543  -4.0195  -4.0061
    -3.9757  -3.9749  -3.9702  -3.9640  -3.9102  -3.9042  -3.8614  -3.8458
    -3.7875  -3.7862  -3.7644  -3.7512  -3.5047  -3.4582  -3.4512  -3.4458
    -3.3808  -3.3658  -3.3640  -3.3079  -3.2861  -3.2845  -3.2625  -3.1642
    -3.1521  -3.1422  -3.1033  -3.0916  -3.0020  -2.9873  -2.9378  -2.8659
    -2.8019  -2.7576  -2.6945  -2.5034  -0.4306  -0.2823  -0.2624  -0.2462
     0.2413   0.4751   0.5250   0.5382   0.5415   0.8155   0.9281   0.9816
     0.9819   0.9875   1.0073   1.0313   1.0992   1.1570   1.1877   1.2329
     1.3243   1.5223   1.5311   1.5901   1.7239   2.0945   2.1046   2.1170
     2.2167   2.2397   2.2478   2.2786   2.4865   2.5595   2.5705   2.5777
     2.6188   2.6693   2.7235   3.0366   3.1279   3.1564   3.2094   3.2980
     3.3450   3.3803   3.4120   3.4381   3.5186   3.6110   3.6560   3.7242
     3.7442   3.7712   3.7755   3.8134   3.8708   3.9128   3.9975   4.1338
     4.1946   4.2219   4.2403   4.3383   4.3436   4.3496   4.3662   4.5406
     4.5652   4.5955   4.6420   4.6816   4.6942   4.7886   4.8398   4.8528
     4.8649   4.9603   4.9692   4.9805

          k = 0.3125-0.3248-0.2308 ( 96096 PWs)   bands (ev):

  -113.6390-113.6381-113.6380-113.6376 -71.1139 -71.1134 -71.1130 -71.1128
   -71.1098 -71.1086 -71.1086 -71.1080 -70.9379 -70.9372 -70.9371 -70.9368
   -22.1403 -22.1027 -22.0447 -22.0172 -21.8291 -21.8121 -21.6726 -21.6664
   -21.6014 -21.5871 -21.5718 -21.5635 -21.3434 -21.3261 -21.2881 -21.2391
   -18.1592 -18.0974 -18.0657 -18.0345 -17.2279 -17.2268 -17.2223 -17.2133
   -16.8007 -16.7985 -16.7888 -16.7841 -16.7033 -16.5990 -16.5527 -16.5210
   -16.5140 -16.5135 -16.5132 -16.5132 -16.5130 -16.5082 -16.5039 -16.5006
   -16.4783 -16.4566 -16.4244 -16.3631 -15.6786 -15.6038 -15.5284 -15.3940
   -15.3152 -15.3053 -15.2274 -15.1656 -14.9692 -14.9006 -14.8356 -14.6765
   -14.6608 -14.6347 -14.5965 -14.5511 -12.2639 -12.0263 -11.8967 -11.7803
   -10.5362 -10.3312 -10.2068 -10.0656  -9.8967  -9.8825  -9.8524  -9.8427
    -9.8391  -9.7829  -9.7788  -9.7027  -9.6813  -9.6789  -9.6159  -9.6153
    -9.2555  -9.1632  -9.1612  -9.0794  -9.0050  -8.8874  -8.7896  -8.6522
    -8.2564  -8.2228  -8.1902  -8.1464  -7.9079  -7.8887  -7.8349  -7.8042
    -7.7596  -7.6761  -7.6253  -7.6241  -7.2164  -7.2086  -7.0792  -7.0493
    -6.9842  -6.9699  -6.9127  -6.8603  -6.6806  -6.6246  -6.5713  -6.5294
    -6.4813  -6.4415  -6.3513  -6.3131  -6.1506  -6.1220  -6.0803  -5.9592
    -5.8123  -5.7900  -5.7628  -5.7017  -5.6667  -5.5563  -5.5490  -5.4765
    -5.4363  -5.4314  -5.3898  -5.3164  -5.3112  -5.3004  -5.2387  -5.2006
    -5.1763  -5.1333  -5.1176  -5.1155  -4.9875  -4.9775  -4.9035  -4.8890
    -4.8672  -4.7506  -4.7185  -4.7110  -4.4682  -4.4604  -4.4582  -4.3611
    -4.3203  -4.3096  -4.2973  -4.2929  -4.2132  -4.2049  -4.1852  -4.1667
    -4.1401  -4.1304  -4.1126  -4.1083  -4.0702  -4.0573  -4.0301  -4.0172
    -3.9929  -3.9875  -3.9839  -3.9798  -3.9141  -3.8965  -3.8566  -3.8542
    -3.7626  -3.7475  -3.7229  -3.7164  -3.5182  -3.4617  -3.4418  -3.4339
    -3.4255  -3.3438  -3.3404  -3.3216  -3.3133  -3.2832  -3.2239  -3.1858
    -3.1819  -3.1740  -3.1414  -3.0702  -2.9522  -2.8927  -2.8835  -2.8697
    -2.8683  -2.7267  -2.6298  -2.5640  -0.4020  -0.3509  -0.2927  -0.2146
     0.3291   0.4838   0.5128   0.5654   0.5860   0.7943   0.8337   0.9252
     0.9745   0.9905   1.0230   1.0288   1.0523   1.1330   1.2232   1.2926
     1.3716   1.4904   1.5120   1.6010   1.7910   1.9615   2.0123   2.0331
     2.2402   2.2535   2.2568   2.2607   2.4655   2.6048   2.6052   2.6151
     2.6348   2.7324   2.9088   3.0376   3.0721   3.1066   3.2241   3.2484
     3.2508   3.3389   3.3992   3.4288   3.4317   3.5184   3.6848   3.6928
     3.7225   3.7873   3.8374   3.9105   3.9456   4.0023   4.0713   4.0740
     4.2123   4.2431   4.2860   4.3195   4.3511   4.3855   4.4212   4.5182
     4.5534   4.5955   4.6125   4.6332   4.6598   4.7005   4.7690   4.8070
     4.8260   4.9391   4.9671   4.9754

          k = 0.3125-0.1804-0.2308 ( 96048 PWs)   bands (ev):

  -113.6390-113.6381-113.6380-113.6376 -71.1139 -71.1134 -71.1130 -71.1127
   -71.1098 -71.1086 -71.1086 -71.1080 -70.9379 -70.9372 -70.9371 -70.9368
   -22.1524 -22.0932 -22.0280 -22.0219 -21.8312 -21.8268 -21.6725 -21.6592
   -21.6268 -21.6142 -21.5368 -21.5275 -21.3571 -21.3260 -21.3101 -21.2221
   -18.1764 -18.0852 -18.0468 -18.0463 -17.2304 -17.2276 -17.2263 -17.2076
   -16.7998 -16.7879 -16.7868 -16.7762 -16.7375 -16.5855 -16.5353 -16.5337
   -16.5151 -16.5137 -16.5135 -16.5132 -16.5130 -16.5067 -16.5020 -16.5012
   -16.4811 -16.4482 -16.3948 -16.3940 -15.6698 -15.6677 -15.5778 -15.3409
   -15.3312 -15.2444 -15.2320 -15.1407 -14.9564 -14.9502 -14.8689 -14.6523
   -14.6499 -14.6114 -14.6049 -14.5375 -12.3395 -11.9850 -11.8335 -11.8285
   -10.5931 -10.2955 -10.1351 -10.1344  -9.8973  -9.8754  -9.8650  -9.8485
    -9.8450  -9.7733  -9.7581  -9.6994  -9.6845  -9.6802  -9.6254  -9.6182
    -9.2515  -9.1699  -9.1668  -9.0694  -9.0384  -8.8732  -8.7421  -8.7416
    -8.2263  -8.1883  -8.1524  -8.1446  -7.9282  -7.8898  -7.8252  -7.8154
    -7.6736  -7.6581  -7.5831  -7.5802  -7.2935  -7.2441  -7.0345  -6.9640
    -6.9553  -6.9466  -6.9263  -6.8935  -6.6814  -6.6499  -6.6166  -6.5765
    -6.5179  -6.5098  -6.3467  -6.3158  -6.1630  -6.1502  -6.0357  -5.9332
    -5.8506  -5.8312  -5.8111  -5.6935  -5.6732  -5.5889  -5.5382  -5.4686
    -5.4654  -5.4441  -5.3686  -5.3369  -5.3019  -5.2898  -5.2593  -5.1913
    -5.1487  -5.1348  -5.1307  -5.1145  -4.9807  -4.9303  -4.9271  -4.8725
    -4.8571  -4.7227  -4.6947  -4.6570  -4.4849  -4.4799  -4.4708  -4.3469
    -4.3247  -4.3085  -4.3017  -4.2964  -4.2385  -4.2259  -4.1744  -4.1589
    -4.1436  -4.1418  -4.1220  -4.1091  -4.0843  -4.0565  -4.0508  -4.0397
    -4.0187  -3.9952  -3.9947  -3.9715  -3.9170  -3.8891  -3.8645  -3.8546
    -3.7378  -3.7321  -3.7309  -3.6210  -3.5386  -3.4990  -3.4701  -3.4299
    -3.4033  -3.3370  -3.3238  -3.3086  -3.2984  -3.2735  -3.2527  -3.2450
    -3.1645  -3.1619  -3.1298  -3.1232  -2.9191  -2.8956  -2.8724  -2.8431
    -2.7620  -2.6551  -2.6417  -2.5812  -0.4378  -0.3433  -0.3365  -0.2004
     0.4414   0.4483   0.4619   0.6077   0.6722   0.7024   0.8402   0.8717
     0.9079   0.9914   1.0200   1.0213   1.0617   1.1156   1.1626   1.3951
     1.4085   1.4366   1.5369   1.5873   1.8543   1.8569   1.9614   1.9887
     2.2330   2.2567   2.2856   2.3026   2.4373   2.6110   2.6362   2.6640
     2.7181   2.8232   2.9810   3.0448   3.0770   3.1098   3.1537   3.1739
     3.1783   3.3644   3.3756   3.3817   3.4238   3.4593   3.6425   3.6449
     3.7103   3.8317   3.9102   3.9931   4.0228   4.0411   4.0764   4.1544
     4.1894   4.2308   4.2634   4.2670   4.3358   4.4203   4.4329   4.4490
     4.4674   4.5222   4.6127   4.6187   4.6220   4.7391   4.7532   4.7538
     4.7856   4.9183   4.9185   4.9765

          k = 0.4375 0.7578-0.2308 ( 96082 PWs)   bands (ev):

  -113.6390-113.6381-113.6380-113.6376 -71.1139 -71.1134 -71.1130 -71.1128
   -71.1098 -71.1086 -71.1086 -71.1080 -70.9379 -70.9372 -70.9371 -70.9368
   -22.1236 -22.1209 -22.0480 -22.0138 -21.8273 -21.8121 -21.6680 -21.6669
   -21.6051 -21.5948 -21.5729 -21.5553 -21.3566 -21.3159 -21.2671 -21.2574
   -18.1290 -18.1286 -18.0672 -18.0335 -17.2256 -17.2221 -17.2213 -17.2200
   -16.8059 -16.7946 -16.7924 -16.7916 -16.6494 -16.6490 -16.5507 -16.5193
   -16.5136 -16.5133 -16.5131 -16.5130 -16.5114 -16.5108 -16.5040 -16.5010
   -16.4710 -16.4706 -16.4251 -16.3570 -15.6671 -15.5882 -15.4185 -15.4170
   -15.4153 -15.3249 -15.2007 -15.1961 -14.9631 -14.8952 -14.7479 -14.7437
   -14.6848 -14.6364 -14.5760 -14.5731 -12.1432 -12.1415 -11.9001 -11.7704
   -10.4357 -10.4351 -10.2048 -10.0519  -9.8794  -9.8734  -9.8599  -9.8467
    -9.8162  -9.8126  -9.7516  -9.7082  -9.6744  -9.6660  -9.6625  -9.6399
    -9.2229  -9.1813  -9.1263  -9.1080  -8.9476  -8.9463  -8.7773  -8.6177
    -8.2584  -8.2471  -8.2351  -8.1583  -7.9163  -7.8380  -7.8242  -7.8099
    -7.7913  -7.7308  -7.6529  -7.6519  -7.1490  -7.1434  -7.0899  -7.0882
    -7.0702  -7.0016  -6.9080  -6.8381  -6.6918  -6.6086  -6.5481  -6.5342
    -6.4149  -6.3982  -6.3632  -6.3053  -6.1693  -6.0612  -6.0452  -6.0320
    -5.8056  -5.7624  -5.7098  -5.6528  -5.6493  -5.6414  -5.5220  -5.4905
    -5.4780  -5.4342  -5.3484  -5.3201  -5.3155  -5.2891  -5.2217  -5.2035
    -5.1873  -5.1399  -5.1376  -5.0982  -5.0002  -4.9789  -4.9042  -4.8663
    -4.8337  -4.8032  -4.7628  -4.7430  -4.4668  -4.4454  -4.4096  -4.3985
    -4.3134  -4.3060  -4.3057  -4.3015  -4.1964  -4.1745  -4.1688  -4.1582
    -4.1362  -4.1281  -4.1223  -4.1140  -4.0504  -4.0423  -4.0407  -4.0162
    -3.9882  -3.9802  -3.9744  -3.9642  -3.8974  -3.8902  -3.8820  -3.8635
    -3.7984  -3.7906  -3.7668  -3.7277  -3.4698  -3.4537  -3.4535  -3.4262
    -3.3763  -3.3591  -3.3432  -3.3173  -3.3082  -3.3041  -3.2806  -3.1941
    -3.1361  -3.1302  -3.0985  -3.0911  -3.0068  -2.9792  -2.9026  -2.8809
    -2.7670  -2.7338  -2.7300  -2.5485  -0.4080  -0.3071  -0.2550  -0.2523
     0.2936   0.4616   0.5331   0.5568   0.5599   0.8017   0.8425   0.9411
     0.9825   1.0070   1.0354   1.0657   1.0707   1.1395   1.2458   1.2771
     1.3802   1.4510   1.5037   1.5880   1.7751   1.9876   2.0612   2.0694
     2.2437   2.2462   2.2677   2.2692   2.4995   2.5194   2.5313   2.5545
     2.6433   2.6785   2.9015   3.0839   3.1196   3.1302   3.2094   3.2901
     3.3121   3.3517   3.3615   3.3622   3.5444   3.5513   3.6444   3.6472
     3.6577   3.6992   3.8900   3.9128   3.9154   4.0820   4.1379   4.1420
     4.1615   4.2146   4.2346   4.3054   4.3552   4.3593   4.4765   4.4803
     4.5368   4.5762   4.6195   4.6210   4.6907   4.7687   4.8019   4.8211
     4.8784   4.9184   4.9226   4.9844

          k = 0.4375-0.2526-0.2308 ( 96066 PWs)   bands (ev):

  -113.6390-113.6381-113.6380-113.6376 -71.1139 -71.1134 -71.1130 -71.1128
   -71.1098 -71.1086 -71.1086 -71.1080 -70.9379 -70.9372 -70.9371 -70.9368
   -22.1350 -22.1144 -22.0269 -22.0246 -21.8281 -21.8264 -21.6638 -21.6602
   -21.6038 -21.5909 -21.5731 -21.5599 -21.3441 -21.3336 -21.2753 -21.2455
   -18.1478 -18.1158 -18.0472 -18.0468 -17.2250 -17.2243 -17.2234 -17.2172
   -16.7981 -16.7976 -16.7941 -16.7860 -16.6843 -16.6298 -16.5311 -16.5305
   -16.5138 -16.5132 -16.5132 -16.5129 -16.5124 -16.5100 -16.5022 -16.5019
   -16.4760 -16.4660 -16.3904 -16.3901 -15.6441 -15.6423 -15.4688 -15.3715
   -15.3668 -15.3521 -15.2047 -15.1723 -14.9418 -14.9388 -14.7821 -14.6926
   -14.6618 -14.6605 -14.5840 -14.5602 -12.2185 -12.0944 -11.8254 -11.8236
   -10.4993 -10.3947 -10.1203 -10.1198  -9.8797  -9.8651  -9.8614  -9.8555
    -9.8337  -9.7964  -9.7388  -9.7105  -9.6805  -9.6640  -9.6602  -9.6446
    -9.2193  -9.1915  -9.1310  -9.0970  -8.9854  -8.9261  -8.7031  -8.7021
    -8.2419  -8.2226  -8.2126  -8.2024  -7.8668  -7.8632  -7.8292  -7.8191
    -7.7599  -7.7380  -7.6289  -7.6260  -7.1863  -7.1732  -7.1142  -7.0450
    -6.9738  -6.9708  -6.9269  -6.9127  -6.6605  -6.6498  -6.5680  -6.5509
    -6.4219  -6.4190  -6.3303  -6.3204  -6.1261  -6.0878  -6.0842  -6.0036
    -5.8150  -5.8057  -5.6939  -5.6919  -5.6814  -5.5875  -5.5301  -5.4649
    -5.4642  -5.4525  -5.3637  -5.3213  -5.3068  -5.2974  -5.2269  -5.2065
[...]
     2.6336   2.7613   2.8826   3.0265   3.0589   3.0993   3.1369   3.2236
     3.2812   3.3964   3.4363   3.4503   3.4527   3.5192   3.6408   3.6678
     3.6975   3.8024   3.9007   3.9111   3.9797   4.0703   4.0741   4.0753
     4.2116   4.2331   4.2479   4.3004   4.3357   4.3551   4.4681   4.4787
     4.4930   4.6276   4.6388   4.6561   4.6865   4.7065   4.7938   4.7970
     4.8248   4.8553   4.8926   5.0033

          k =-0.3125-0.1804 0.2308 ( 96048 PWs)   bands (ev):

  -113.6390-113.6381-113.6380-113.6376 -71.1139 -71.1134 -71.1130 -71.1127
   -71.1098 -71.1086 -71.1086 -71.1080 -70.9379 -70.9372 -70.9371 -70.9368
   -22.1495 -22.0754 -22.0564 -22.0324 -21.7924 -21.7827 -21.7110 -21.6896
   -21.6554 -21.6544 -21.4749 -21.4638 -21.3840 -21.3819 -21.2837 -21.2182
   -18.1763 -18.0848 -18.0471 -18.0466 -17.2309 -17.2268 -17.2259 -17.2077
   -16.7998 -16.7895 -16.7888 -16.7754 -16.7374 -16.5856 -16.5335 -16.5328
   -16.5157 -16.5140 -16.5132 -16.5125 -16.5125 -16.5049 -16.5032 -16.5029
   -16.4814 -16.4496 -16.3939 -16.3926 -15.6722 -15.6661 -15.5765 -15.3347
   -15.3326 -15.2403 -15.2375 -15.1464 -14.9577 -14.9538 -14.8659 -14.6511
   -14.6492 -14.6098 -14.6050 -14.5379 -12.3386 -11.9818 -11.8365 -11.8294
   -10.5933 -10.2961 -10.1347 -10.1343  -9.9012  -9.8739  -9.8595  -9.8580
    -9.8374  -9.7766  -9.7393  -9.7093  -9.6865  -9.6802  -9.6468  -9.6090
    -9.2146  -9.1977  -9.1585  -9.0780  -9.0395  -8.8763  -8.7411  -8.7353
    -8.2227  -8.1934  -8.1582  -8.1502  -7.9280  -7.8838  -7.8315  -7.8082
    -7.6634  -7.6560  -7.5971  -7.5879  -7.2870  -7.2517  -7.0701  -6.9644
    -6.9569  -6.9360  -6.9068  -6.8933  -6.6343  -6.6072  -6.5802  -6.5265
    -6.5196  -6.5085  -6.4541  -6.3598  -6.2574  -6.1953  -5.9027  -5.8792
    -5.8384  -5.8330  -5.8127  -5.7023  -5.6751  -5.6048  -5.5632  -5.5427
    -5.5046  -5.3741  -5.3621  -5.2988  -5.2828  -5.2766  -5.2694  -5.1891
    -5.1582  -5.1402  -5.1282  -5.1152  -4.9804  -4.9514  -4.9031  -4.8796
    -4.8705  -4.7141  -4.6971  -4.6741  -4.4862  -4.4853  -4.4727  -4.3521
    -4.3278  -4.3056  -4.3045  -4.2909  -4.2310  -4.1993  -4.1699  -4.1665
    -4.1478  -4.1388  -4.1196  -4.1170  -4.0876  -4.0643  -4.0605  -4.0545
    -4.0002  -3.9948  -3.9912  -3.9580  -3.9221  -3.8869  -3.8785  -3.8475
    -3.7373  -3.7346  -3.7296  -3.6238  -3.5127  -3.4976  -3.4913  -3.4272
    -3.4131  -3.3309  -3.3132  -3.3077  -3.2980  -3.2754  -3.2612  -3.2559
    -3.1667  -3.1589  -3.1238  -3.1220  -2.9084  -2.8940  -2.8669  -2.8578
    -2.7748  -2.6533  -2.6512  -2.5639  -0.4349  -0.3308  -0.3283  -0.2130
     0.4436   0.4563   0.4604   0.6011   0.6678   0.7059   0.8546   0.8782
     0.9044   0.9901   1.0120   1.0206   1.0741   1.1150   1.1523   1.3889
     1.3924   1.4225   1.5411   1.5677   1.8469   1.8843   1.9559   1.9916
     2.2598   2.2688   2.2771   2.3096   2.4319   2.5982   2.6075   2.6721
     2.7044   2.8023   3.0141   3.0183   3.0697   3.1254   3.1311   3.1857
     3.2133   3.3849   3.3929   3.3955   3.4287   3.4645   3.6339   3.6361
     3.6669   3.8288   3.9695   3.9742   3.9918   4.0569   4.0784   4.1347
     4.1640   4.2459   4.2769   4.2811   4.3478   4.3855   4.3939   4.4441
     4.4763   4.5113   4.6533   4.6747   4.6907   4.7242   4.7388   4.7524
     4.8291   4.8749   4.9565   5.0138

          k = 0.0000-0.3608-0.2308 ( 96048 PWs)   bands (ev):

  -113.6390-113.6381-113.6380-113.6376 -71.1139 -71.1134 -71.1130 -71.1127
   -71.1098 -71.1086 -71.1086 -71.1080 -70.9379 -70.9372 -70.9371 -70.9368
   -22.1473 -22.0671 -22.0612 -22.0438 -21.7950 -21.7814 -21.7107 -21.6924
   -21.6207 -21.6192 -21.5361 -21.5249 -21.3458 -21.3185 -21.3168 -21.2248
   -18.1763 -18.0848 -18.0470 -18.0467 -17.2294 -17.2277 -17.2273 -17.2072
   -16.8015 -16.7894 -16.7880 -16.7756 -16.7358 -16.5860 -16.5336 -16.5322
   -16.5152 -16.5134 -16.5133 -16.5131 -16.5130 -16.5061 -16.5029 -16.5017
   -16.4812 -16.4478 -16.3960 -16.3944 -15.6685 -15.6635 -15.5789 -15.3381
   -15.3270 -15.2402 -15.2388 -15.1491 -14.9605 -14.9518 -14.8675 -14.6511
   -14.6483 -14.6123 -14.6044 -14.5360 -12.3364 -11.9749 -11.8382 -11.8357
   -10.5937 -10.2968 -10.1345 -10.1340  -9.9171  -9.9015  -9.8803  -9.8324
    -9.8280  -9.8153  -9.7348  -9.7222  -9.6922  -9.6829  -9.5667  -9.5351
    -9.2900  -9.2394  -9.1245  -9.0639  -9.0375  -8.8707  -8.7463  -8.7401
    -8.2145  -8.1977  -8.1595  -8.1364  -7.9417  -7.8684  -7.8346  -7.8212
    -7.6715  -7.6554  -7.5853  -7.5820  -7.2948  -7.2450  -7.0312  -6.9733
    -6.9716  -6.9382  -6.9232  -6.9035  -6.6311  -6.5900  -6.5805  -6.5720
    -6.5136  -6.5060  -6.4001  -6.3974  -6.2808  -6.0663  -6.0624  -5.8840
    -5.8612  -5.8474  -5.7912  -5.6834  -5.6425  -5.6067  -5.5297  -5.5070
    -5.4479  -5.4212  -5.3767  -5.3353  -5.2906  -5.2645  -5.2643  -5.2140
    -5.1424  -5.1330  -5.1304  -5.1295  -4.9563  -4.9264  -4.9228  -4.9142
    -4.8934  -4.7121  -4.6919  -4.6618  -4.4804  -4.4762  -4.4730  -4.3463
    -4.3282  -4.3137  -4.2937  -4.2915  -4.2519  -4.2384  -4.1989  -4.1569
    -4.1486  -4.1360  -4.1130  -4.0989  -4.0917  -4.0906  -4.0443  -4.0201
    -4.0137  -3.9966  -3.9681  -3.9478  -3.9306  -3.9095  -3.8373  -3.8220
    -3.7379  -3.7333  -3.7290  -3.6223  -3.5194  -3.5177  -3.4713  -3.4430
    -3.4167  -3.3354  -3.3154  -3.3031  -3.2892  -3.2682  -3.2532  -3.2468
    -3.1728  -3.1619  -3.1263  -3.1146  -2.9408  -2.8816  -2.8656  -2.8552
    -2.7581  -2.6594  -2.6496  -2.5797  -0.4356  -0.3470  -0.3301  -0.2049
     0.4252   0.4502   0.4737   0.6188   0.6677   0.7113   0.8452   0.8747
     0.8985   1.0052   1.0146   1.0192   1.0702   1.1007   1.1537   1.3829
     1.3994   1.4489   1.5506   1.5759   1.8658   1.8771   1.9691   1.9831
     2.1988   2.2566   2.2959   2.2989   2.4413   2.5906   2.6506   2.6572
     2.6949   2.8120   2.9986   3.0049   3.0231   3.1014   3.1026   3.2074
     3.2093   3.3826   3.4082   3.4238   3.4352   3.4582   3.6013   3.6677
     3.7362   3.8312   3.9205   3.9871   4.0104   4.0830   4.0986   4.1449
     4.1604   4.2279   4.2459   4.3237   4.3473   4.3497   4.4470   4.4552
     4.4670   4.4789   4.6344   4.6465   4.6527   4.6942   4.7094   4.8170
     4.8673   4.8710   4.9681   4.9707

          k =-0.4375 0.7578 0.2308 ( 96082 PWs)   bands (ev):

  -113.6390-113.6381-113.6380-113.6376 -71.1139 -71.1134 -71.1130 -71.1127
   -71.1098 -71.1086 -71.1086 -71.1080 -70.9379 -70.9372 -70.9371 -70.9368
   -22.1177 -22.1112 -22.0658 -22.0312 -21.7666 -21.7459 -21.7297 -21.7188
   -21.6565 -21.6513 -21.4944 -21.4677 -21.3982 -21.3478 -21.2535 -21.2492
   -18.1288 -18.1284 -18.0675 -18.0337 -17.2248 -17.2223 -17.2218 -17.2194
   -16.8075 -16.7972 -16.7917 -16.7912 -16.6496 -16.6491 -16.5488 -16.5187
   -16.5146 -16.5144 -16.5119 -16.5117 -16.5095 -16.5092 -16.5063 -16.5026
   -16.4716 -16.4714 -16.4240 -16.3560 -15.6676 -15.5890 -15.4166 -15.4152
   -15.4125 -15.3218 -15.2045 -15.2025 -14.9653 -14.8985 -14.7448 -14.7420
   -14.6836 -14.6348 -14.5756 -14.5741 -12.1417 -12.1393 -11.9022 -11.7718
   -10.4360 -10.4356 -10.2044 -10.0517  -9.8869  -9.8687  -9.8677  -9.8420
    -9.8031  -9.8005  -9.7629  -9.7113  -9.6794  -9.6747  -9.6637  -9.6368
    -9.1999  -9.1520  -9.1443  -9.1340  -8.9492  -8.9484  -8.7726  -8.6129
    -8.2690  -8.2393  -8.2369  -8.1729  -7.9098  -7.8300  -7.8242  -7.8067
    -7.7851  -7.7324  -7.6630  -7.6612  -7.1667  -7.1626  -7.0862  -7.0855
    -7.0726  -6.9788  -6.9091  -6.8461  -6.5812  -6.5462  -6.5242  -6.5058
    -6.4647  -6.4139  -6.3975  -6.3973  -6.2685  -6.1667  -5.9266  -5.8915
    -5.8031  -5.7760  -5.6974  -5.6667  -5.6538  -5.6438  -5.5421  -5.5136
    -5.5022  -5.4962  -5.2969  -5.2900  -5.2672  -5.2508  -5.2475  -5.2221
    -5.1681  -5.1443  -5.1241  -5.1225  -5.0228  -5.0039  -4.8951  -4.8595
    -4.8037  -4.7986  -4.7825  -4.7698  -4.4699  -4.4559  -4.4123  -4.3913
    -4.3154  -4.3118  -4.3009  -4.2977  -4.1804  -4.1723  -4.1612  -4.1453
    -4.1441  -4.1380  -4.1160  -4.1082  -4.0661  -4.0542  -4.0482  -4.0282
    -3.9691  -3.9689  -3.9670  -3.9613  -3.9078  -3.8908  -3.8849  -3.8586
    -3.8025  -3.7992  -3.7637  -3.7271  -3.4576  -3.4545  -3.4524  -3.4348
    -3.3842  -3.3578  -3.3506  -3.3138  -3.3091  -3.2962  -3.2843  -3.1949
    -3.1233  -3.1221  -3.1100  -3.0833  -3.0148  -2.9790  -2.9165  -2.8909
    -2.7486  -2.7420  -2.7160  -2.5512  -0.3993  -0.2993  -0.2555  -0.2546
     0.2956   0.4629   0.5346   0.5436   0.5665   0.7978   0.8561   0.9483
     0.9949   1.0006   1.0345   1.0656   1.0701   1.1425   1.2293   1.2799
     1.3696   1.4400   1.4902   1.5632   1.7799   1.9950   2.0742   2.0755
     2.2504   2.2536   2.2702   2.2918   2.4803   2.5066   2.5326   2.5460
     2.6284   2.6779   2.9070   3.0613   3.1039   3.1195   3.1921   3.2837
     3.3437   3.3674   3.4046   3.4183   3.5436   3.5611   3.6047   3.6507
     3.6614   3.7166   3.8703   3.9093   3.9250   4.0329   4.1272   4.1396
     4.1435   4.2029   4.2098   4.2775   4.3460   4.4133   4.4564   4.5526
     4.5530   4.5778   4.6361   4.6744   4.7403   4.7436   4.8060   4.8446
     4.9011   4.9281   4.9318   4.9384

          k = 0.8750 0.0000-0.2308 ( 96082 PWs)   bands (ev):

  -113.6390-113.6381-113.6380-113.6376 -71.1139 -71.1134 -71.1130 -71.1127
   -71.1098 -71.1086 -71.1086 -71.1080 -70.9379 -70.9372 -70.9371 -70.9368
   -22.1114 -22.1077 -22.0751 -22.0381 -21.7680 -21.7470 -21.7299 -21.7222
   -21.6000 -21.5952 -21.5687 -21.5565 -21.3472 -21.3031 -21.2705 -21.2650
   -18.1286 -18.1285 -18.0674 -18.0337 -17.2262 -17.2213 -17.2208 -17.2203
   -16.8070 -16.7961 -16.7933 -16.7916 -16.6494 -16.6477 -16.5490 -16.5186
   -16.5141 -16.5134 -16.5125 -16.5120 -16.5109 -16.5099 -16.5053 -16.5019
   -16.4710 -16.4708 -16.4260 -16.3577 -15.6643 -15.5852 -15.4171 -15.4156
   -15.4130 -15.3212 -15.2083 -15.2028 -14.9658 -14.8989 -14.7482 -14.7426
   -14.6831 -14.6341 -14.5756 -14.5724 -12.1367 -12.1359 -11.9065 -11.7746
   -10.4365 -10.4362 -10.2040 -10.0516  -9.9084  -9.9073  -9.8508  -9.8478
    -9.8216  -9.8141  -9.7589  -9.7289  -9.6851  -9.6843  -9.5594  -9.5574
    -9.2708  -9.2349  -9.1029  -9.0948  -8.9462  -8.9447  -8.7786  -8.6189
    -8.2723  -8.2342  -8.2235  -8.1684  -7.9107  -7.8445  -7.8321  -7.8082
    -7.7818  -7.7326  -7.6556  -7.6544  -7.1519  -7.1492  -7.0895  -7.0841
    -7.0796  -6.9907  -6.9192  -6.8508  -6.5700  -6.5527  -6.5212  -6.5057
    -6.4813  -6.4270  -6.4066  -6.3923  -6.2264  -6.1446  -5.9827  -5.9478
    -5.8219  -5.7753  -5.6897  -5.6349  -5.6316  -5.6289  -5.5249  -5.5112
    -5.4838  -5.4087  -5.3438  -5.3210  -5.3130  -5.2866  -5.2567  -5.1876
    -5.1668  -5.1467  -5.1251  -5.1105  -5.0007  -4.9879  -4.9170  -4.8849
    -4.8387  -4.8334  -4.7496  -4.7323  -4.4686  -4.4454  -4.4126  -4.3847
    -4.3182  -4.3159  -4.2971  -4.2909  -4.2419  -4.2223  -4.1646  -4.1489
    -4.1263  -4.1214  -4.0962  -4.0907  -4.0883  -4.0831  -4.0004  -3.9971
    -3.9798  -3.9730  -3.9568  -3.9559  -3.9188  -3.9185  -3.8371  -3.8271
    -3.8002  -3.7918  -3.7661  -3.7277  -3.4755  -3.4567  -3.4524  -3.4491
    -3.3654  -3.3631  -3.3402  -3.3109  -3.3102  -3.2987  -3.2792  -3.1962
    -3.1465  -3.1306  -3.0825  -3.0707  -3.0084  -2.9644  -2.9249  -2.8985
    -2.7688  -2.7425  -2.7200  -2.5539  -0.4076  -0.3058  -0.2539  -0.2531
     0.2892   0.4458   0.5297   0.5680   0.5769   0.7976   0.8471   0.9511
     0.9918   1.0123   1.0296   1.0546   1.0748   1.1281   1.2442   1.2894
     1.3638   1.4486   1.5302   1.5662   1.7793   1.9998   2.0850   2.0951
     2.1919   2.2314   2.2557   2.2595   2.4879   2.5034   2.5691   2.5707
     2.6335   2.6759   2.8578   3.0548   3.0954   3.1044   3.2018   3.2130
     3.3650   3.3840   3.4042   3.4179   3.5487   3.5489   3.6482   3.6528
     3.6655   3.6782   3.8912   3.9331   3.9425   4.0772   4.1065   4.1286
     4.1376   4.2569   4.2599   4.2885   4.3178   4.3613   4.5186   4.5221
     4.5441   4.5631   4.6315   4.6909   4.6967   4.7304   4.8252   4.8626
     4.8843   4.8977   4.9343   4.9573

          k =-0.4375-0.2526 0.2308 ( 96066 PWs)   bands (ev):

  -113.6390-113.6381-113.6380-113.6376 -71.1139 -71.1134 -71.1130 -71.1127
   -71.1098 -71.1086 -71.1086 -71.1080 -70.9379 -70.9372 -70.9371 -70.9368
   -22.1290 -22.1035 -22.0501 -22.0418 -21.7633 -21.7486 -21.7338 -21.7165
   -21.6597 -21.6579 -21.4721 -21.4681 -21.3826 -21.3814 -21.2601 -21.2373
   -18.1476 -18.1155 -18.0475 -18.0471 -17.2255 -17.2233 -17.2228 -17.2174
   -16.8003 -16.7997 -16.7939 -16.7855 -16.6842 -16.6297 -16.5295 -16.5293
   -16.5150 -16.5144 -16.5120 -16.5117 -16.5107 -16.5081 -16.5041 -16.5039
   -16.4765 -16.4670 -16.3893 -16.3887 -15.6454 -15.6422 -15.4666 -15.3677
   -15.3657 -15.3490 -15.2104 -15.1781 -14.9442 -14.9421 -14.7795 -14.6905
   -14.6603 -14.6592 -14.5841 -14.5605 -12.2169 -12.0920 -11.8277 -11.8251
   -10.4997 -10.3952 -10.1199 -10.1196  -9.8869  -9.8718  -9.8611  -9.8483
    -9.8227  -9.7802  -9.7460  -9.7196  -9.6857  -9.6747  -9.6625  -9.6391
    -9.1829  -9.1695  -9.1616  -9.1150  -8.9870  -8.9285  -8.6994  -8.6957
    -8.2386  -8.2341  -8.2156  -8.2098  -7.8645  -7.8577  -7.8241  -7.8157
    -7.7571  -7.7367  -7.6384  -7.6374  -7.2022  -7.1678  -7.1402  -7.0409
    -6.9741  -6.9716  -6.9102  -6.9056  -6.5716  -6.5606  -6.5476  -6.5108
    -6.4603  -6.4191  -6.4180  -6.4028  -6.2410  -6.2174  -5.8927  -5.8843
    -5.8113  -5.8092  -5.7020  -5.6970  -5.6899  -5.5934  -5.5455  -5.5384
    -5.5210  -5.4505  -5.3028  -5.2843  -5.2707  -5.2547  -5.2418  -5.2206
    -5.1525  -5.1515  -5.1461  -5.1343  -5.0203  -4.9960  -4.8821  -4.8673
    -4.8243  -4.7599  -4.7491  -4.7470  -4.4728  -4.4652  -4.4415  -4.3884
    -4.3203  -4.3123  -4.3009  -4.2966  -4.1763  -4.1706  -4.1585  -4.1466
    -4.1446  -4.1419  -4.1345  -4.1100  -4.0681  -4.0492  -4.0467  -4.0409
    -3.9786  -3.9769  -3.9671  -3.9636  -3.9095  -3.8943  -3.8774  -3.8640
    -3.7953  -3.7685  -3.7389  -3.7375  -3.4605  -3.4540  -3.4406  -3.4329
    -3.3927  -3.3518  -3.3363  -3.3319  -3.3123  -3.2889  -3.2519  -3.2423
    -3.1529  -3.1335  -3.1047  -3.0713  -2.9928  -2.9270  -2.9242  -2.8951
    -2.7937  -2.6785  -2.6449  -2.6421  -0.3507  -0.3482  -0.2976  -0.2230
     0.3873   0.3919   0.5376   0.5815   0.6439   0.6675   0.9005   0.9168
     0.9912   0.9924   1.0102   1.0400   1.1064   1.1307   1.2801   1.3358
     1.3526   1.3776   1.5217   1.5314   1.8684   1.8812   2.0235   2.0530
     2.2557   2.2588   2.2630   2.2866   2.4730   2.5247   2.5439   2.5674
     2.6228   2.7045   3.0601   3.0688   3.0695   3.1186   3.1558   3.1888
     3.3226   3.3660   3.3804   3.3917   3.4788   3.5789   3.6122   3.6439
     3.6457   3.7186   3.8922   3.9999   4.0519   4.0721   4.0729   4.1513
     4.1712   4.1741   4.2260   4.2925   4.3476   4.3711   4.4577   4.4934
     4.5031   4.6263   4.6421   4.7086   4.7107   4.7287   4.7919   4.7943
     4.8532   4.9205   4.9495   4.9826

          k = 0.0000-0.5052-0.2308 ( 96066 PWs)   bands (ev):

  -113.6390-113.6381-113.6380-113.6376 -71.1139 -71.1134 -71.1130 -71.1127
   -71.1098 -71.1086 -71.1086 -71.1080 -70.9379 -70.9372 -70.9371 -70.9368
   -22.1249 -22.0973 -22.0579 -22.0519 -21.7648 -21.7501 -21.7347 -21.7195
   -21.5960 -21.5945 -21.5670 -21.5615 -21.3312 -21.3223 -21.2817 -21.2502
   -18.1476 -18.1155 -18.0473 -18.0472 -17.2247 -17.2243 -17.2239 -17.2165
   -16.7996 -16.7990 -16.7952 -16.7863 -16.6830 -16.6293 -16.5295 -16.5290
   -16.5143 -16.5136 -16.5123 -16.5123 -16.5116 -16.5092 -16.5034 -16.5029
   -16.4761 -16.4661 -16.3915 -16.3909 -15.6413 -15.6384 -15.4679 -15.3691
   -15.3637 -15.3488 -15.2127 -15.1804 -14.9456 -14.9417 -14.7817 -14.6931
   -14.6598 -14.6583 -14.5831 -14.5590 -12.2131 -12.0866 -11.8307 -11.8298
   -10.5002 -10.3959 -10.1197 -10.1194  -9.9134  -9.9080  -9.8645  -9.8476
    -9.8181  -9.8126  -9.7434  -9.7378  -9.6877  -9.6843  -9.5511  -9.5401
    -9.2734  -9.2555  -9.1054  -9.0839  -8.9840  -8.9241  -8.7057  -8.7021
    -8.2343  -8.2290  -8.2157  -8.1981  -7.8771  -7.8470  -7.8363  -7.8235
    -7.7476  -7.7467  -7.6310  -7.6285  -7.1889  -7.1779  -7.1119  -7.0454
    -6.9854  -6.9846  -6.9178  -6.9106  -6.5797  -6.5561  -6.5249  -6.5152
    -6.4675  -6.4543  -6.4136  -6.4080  -6.2275  -6.1495  -5.9942  -5.9281
    -5.8283  -5.8204  -5.6772  -5.6759  -5.6560  -5.5724  -5.5462  -5.4697
    -5.4638  -5.4472  -5.3568  -5.3208  -5.2954  -5.2896  -5.2329  -5.2305
    -5.1462  -5.1405  -5.1388  -5.1337  -4.9982  -4.9754  -4.9055  -4.8871
    -4.8657  -4.7844  -4.7281  -4.7129  -4.4660  -4.4624  -4.4345  -4.3824
    -4.3220  -4.3167  -4.2939  -4.2935  -4.2432  -4.2375  -4.1557  -4.1455
    -4.1416  -4.1194  -4.1018  -4.0984  -4.0872  -4.0814  -4.0090  -3.9929
    -3.9878  -3.9807  -3.9596  -3.9523  -3.9245  -3.9173  -3.8306  -3.8233
    -3.7878  -3.7663  -3.7404  -3.7395  -3.4776  -3.4623  -3.4550  -3.4305
    -3.3900  -3.3507  -3.3281  -3.3221  -3.3026  -3.2887  -3.2531  -3.2429
    -3.1492  -3.1342  -3.1166  -3.0542  -2.9808  -2.9435  -2.9081  -2.8995
    -2.8051  -2.6947  -2.6487  -2.6433  -0.3616  -0.3550  -0.2973  -0.2196
     0.3730   0.3822   0.5554   0.6000   0.6426   0.6648   0.8882   0.9073
     0.9901   1.0145   1.0216   1.0374   1.0894   1.1104   1.2859   1.3422
     1.3746   1.3941   1.5417   1.5425   1.8716   1.8824   2.0509   2.0518
     2.1784   2.2268   2.2626   2.2681   2.4638   2.5463   2.5796   2.5816
     2.6239   2.7085   3.0031   3.0201   3.0647   3.0972   3.1332   3.1967
     3.3266   3.3790   3.3920   3.4165   3.4757   3.5697   3.6074   3.6337
     3.6637   3.7172   3.9496   4.0373   4.0454   4.0595   4.0675   4.1477
     4.2073   4.2176   4.2185   4.2975   4.3657   4.3833   4.4943   4.5013
     4.5020   4.5369   4.6658   4.6705   4.6814   4.6829   4.8138   4.8314
     4.8477   4.8732   4.9839   5.0419

     the Fermi energy is    -1.6433 ev
     (compare with:    -1.6813 eV, computed in scf)

     Writing all to output data dir ./test.save/ :
     XML data file, pseudopotentials, collected wavefunctions
 
     init_run     :      1.72s CPU      1.84s WALL (       1 calls)
     electrons    :   9048.76s CPU   9094.61s WALL (       1 calls)

     Called by init_run:
     wfcinit      :      0.00s CPU      0.01s WALL (       1 calls)
     potinit      :      0.06s CPU      0.09s WALL (       1 calls)
     hinit0       :      0.10s CPU      0.12s WALL (       1 calls)

     Called by electrons:
     c_bands      :   9048.75s CPU   9094.59s WALL (       1 calls)
     v_of_rho     :      0.03s CPU      0.04s WALL (       1 calls)
     newd         :      0.95s CPU      0.97s WALL (       1 calls)

     Called by c_bands:
     init_us_2    :      0.30s CPU      0.31s WALL (      24 calls)
     ccgdiagg     :   8914.41s CPU   8958.85s WALL (     144 calls)
     wfcrot       :     54.74s CPU     55.46s WALL (     144 calls)

     Called by *cgdiagg:
     h_psi        :   3537.90s CPU   3557.37s WALL (  500682 calls)
     s_psi        :   2926.42s CPU   2940.79s WALL ( 1001220 calls)

     Called by h_psi:
     h_psi:calbec :   1657.11s CPU   1666.28s WALL (  500682 calls)
     vloc_psi     :    385.03s CPU    388.29s WALL (  500682 calls)
     add_vuspsi   :   1489.52s CPU   1496.93s WALL (  500682 calls)
     hs_1psi      :   4962.15s CPU   4987.79s WALL (  500538 calls)
     s_1psi       :   3009.16s CPU   3022.91s WALL (  500538 calls)

     General routines
     calbec       :   3195.92s CPU   3212.84s WALL ( 1001220 calls)
     fft          :      0.02s CPU      0.03s WALL (      13 calls)
     ffts         :      0.00s CPU      0.00s WALL (       1 calls)
     fftw         :    232.22s CPU    234.21s WALL ( 1088052 calls)
     interpolate  :      0.00s CPU      0.01s WALL (       1 calls)
     davcio       :      0.01s CPU      0.39s WALL (      48 calls)
 
     Parallel routines
 
     PWSCF        :   9058.82s CPU   9108.49s WALL

 
   This run was terminated on:  12:11:18   8Dec2025            

=------------------------------------------------------------------------------=
   JOB DONE.
=------------------------------------------------------------------------------=
