
     Program PWSCF v.7.3.1 starts on  8Dec2025 at  9:27:56 

     This program is part of the open-source Quantum ESPRESSO suite
     for quantum simulation of materials; please cite
         "P. Giannozzi et al., J. Phys.:Condens. Matter 21 395502 (2009);
         "P. Giannozzi et al., J. Phys.:Condens. Matter 29 465901 (2017);
         "P. Giannozzi et al., J. Chem. Phys. 152 154105 (2020);
          URL http://www.quantum-espresso.org", 
     in publications or presentations arising from this work. More details at
     http://www.quantum-espresso.org/quote

     Parallel version (MPI & OpenMP), running on     256 processor cores
     Number of MPI processes:               256
     Threads/MPI process:                     1

     MPI processes distributed on     4 nodes
     501863 MiB available memory on the printing compute node when the environment starts
 
     Waiting for input...
     Reading input from standard input
Warning: card &CELL ignored
Warning: card   PRESS = 0.0, ignored
Warning: card / ignored

     Current dimensions of program PWSCF are:
     Max number of different atomic species (ntypx) = 10
     Max number of k-points (npk) =  40000
     Max angular momentum in pseudopotentials (lmaxx) =  4

     IMPORTANT: XC functional enforced from input :
     Exchange-correlation= PBE
                           (   1   4   3   4   0   0   0)
     Any further DFT definition will be discarded
     Please, verify this is what you really want

 
     K-points division:     npool     =       4
     R & G space division:  proc/nbgrp/npool/nimage =      64
     Subspace diagonalization in iterative solution of the eigenvalue problem:
     one sub-group per band group will be used
     ELPA distributed-memory algorithm (size of sub-group:  3*  3 procs)

 
     Parallelization info
     --------------------
     sticks:   dense  smooth     PW     G-vecs:    dense   smooth      PW
     Min         180      90     24                33956    12002    1671
     Max         181      91     26                33969    12012    1680
     Sum       11557    5773   1555              2173495   768463  107317
 
     Using Slab Decomposition
 


     bravais-lattice index     =            4
     lattice parameter (alat)  =      22.8869  a.u.
     unit-cell volume          =   22488.0312 (a.u.)^3
     number of atoms/cell      =           88
     number of atomic types    =            6
     number of electrons       =       440.00
     number of Kohn-Sham states=          300
     kinetic-energy cutoff     =      40.0000  Ry
     charge density cutoff     =     320.0000  Ry
     scf convergence threshold =      1.0E-08
     mixing beta               =       0.3000
     number of iterations used =            8  plain     mixing
     Exchange-correlation= PBE
                           (   1   4   3   4   0   0   0)

     celldm(1)=  22.886890  celldm(2)=   0.000000  celldm(3)=   2.166010
     celldm(4)=   0.000000  celldm(5)=   0.000000  celldm(6)=   0.000000

     crystal axes: (cart. coord. in units of alat)
               a(1) = (   1.000000   0.000000   0.000000 )  
               a(2) = (  -0.500000   0.866025   0.000000 )  
               a(3) = (   0.000000   0.000000   2.166010 )  

     reciprocal axes: (cart. coord. in units 2 pi/alat)
               b(1) = (  1.000000  0.577350  0.000000 )  
               b(2) = (  0.000000  1.154701  0.000000 )  
               b(3) = (  0.000000  0.000000  0.461678 )  


     PseudoPot. # 1 for Cu read from file:
     ./cu_pbe_v1.2.uspp.F.UPF
     MD5 check sum: 6e991ff952a84172a2a52a1c1e996048
     Pseudo is Ultrasoft + core correction, Zval = 19.0
     Generated by new atomic code, or converted to UPF format
     Using radial grid of  867 points,  6 beta functions with: 
                l(1) =   0
                l(2) =   0
                l(3) =   1
                l(4) =   1
                l(5) =   2
                l(6) =   2
     Q(r) pseudized with  8 coefficients,  rinner =    1.150   1.150   1.150
                                                       1.150   1.150

     PseudoPot. # 2 for In read from file:
     ./in_pbe_v1.4.uspp.F.UPF
     MD5 check sum: 90777abd96fbb83f2e67db2a40c566b9
     Pseudo is Ultrasoft + core correction, Zval = 13.0
     Generated by new atomic code, or converted to UPF format
     Using radial grid of  889 points,  6 beta functions with: 
                l(1) =   0
                l(2) =   0
                l(3) =   1
                l(4) =   1
                l(5) =   2
                l(6) =   2
     Q(r) pseudized with  6 coefficients,  rinner =    1.400   1.400   1.400
                                                       1.400   1.400

     PseudoPot. # 3 for P  read from file:
     ./p_pbe_v1.5.uspp.F.UPF
     MD5 check sum: eb82b2c351da08c5f5f8709277dc7ee5
     Pseudo is Ultrasoft + core correction, Zval =  5.0
     Generated by new atomic code, or converted to UPF format
     Using radial grid of  903 points,  6 beta functions with: 
                l(1) =   0
                l(2) =   0
                l(3) =   1
                l(4) =   1
                l(5) =   2
                l(6) =   2
     Q(r) pseudized with  8 coefficients,  rinner =    1.300   1.300   1.300
                                                       1.300   1.300

     PseudoPot. # 4 for S  read from file:
     ./s_pbe_v1.4.uspp.F.UPF
     MD5 check sum: 88d86576ff6df21479756cfb9bdac1df
     Pseudo is Ultrasoft + core correction, Zval =  6.0
     Generated by new atomic code, or converted to UPF format
     Using radial grid of  907 points,  6 beta functions with: 
                l(1) =   0
                l(2) =   0
                l(3) =   1
                l(4) =   1
                l(5) =   2
                l(6) =   2
     Q(r) pseudized with  8 coefficients,  rinner =    1.300   1.300   1.300
                                                       1.300   1.300

     PseudoPot. # 5 for O  read from file:
     ./o_pbe_v1.2.uspp.F.UPF
     MD5 check sum: 734c27235a0248c51dbae37a1fbe46ec
     Pseudo is Ultrasoft + core correction, Zval =  6.0
     Generated by new atomic code, or converted to UPF format
     Using radial grid of  737 points,  5 beta functions with: 
                l(1) =   0
                l(2) =   0
                l(3) =   1
                l(4) =   1
                l(5) =   2
     Q(r) pseudized with  8 coefficients,  rinner =    0.900   0.900   0.900
                                                       0.900   0.900

     PseudoPot. # 6 for H  read from file:
     ./h_pbe_v1.4.uspp.F.UPF
     MD5 check sum: 761ae9a214b05c3daf00ab9f6b793d6f
     Pseudo is Ultrasoft, Zval =  1.0
     Generated by new atomic code, or converted to UPF format
     Using radial grid of  615 points,  2 beta functions with: 
                l(1) =   0
                l(2) =   0
     Q(r) pseudized with  8 coefficients,  rinner =    0.700

     atomic species   valence    mass     pseudopotential
     Cu               19.00    63.54600     Cu( 1.00)
     In               13.00   114.81800     In( 1.00)
     P                 5.00    30.97400     P ( 1.00)
     S                 6.00    32.06500     S ( 1.00)
     O                 6.00    15.99900     O ( 1.00)
     H                 1.00     1.00780     H ( 1.00)

     No symmetry found



   Cartesian axes

     site n.     atom                  positions (alat units)
         1        Cu     tau(   1) = (   0.2710678   0.1539931   1.1371638  )
         2        Cu     tau(   2) = (   0.0212122   0.5869674   1.1372872  )
         3        Cu     tau(   3) = (   0.7711397   0.1536861   1.1370492  )
         4        Cu     tau(   4) = (   0.5211136   0.5867450   1.1369709  )
         5        In     tau(   5) = (   1.0214701   0.0102410   1.0070628  )
         6        In     tau(   6) = (   0.7714056   0.4432675   1.0070624  )
         7        In     tau(   7) = (   0.5213387   0.0102752   1.0069815  )
         8        In     tau(   8) = (   0.2713897   0.4432824   1.0069990  )
         9        P      tau(   9) = (   0.0217650   0.2981845   0.9297949  )
        10        P      tau(  10) = (  -0.2282461   0.7311772   0.9297377  )
        11        P      tau(  11) = (   0.5217486   0.2982049   0.9297332  )
        12        P      tau(  12) = (   0.2717544   0.7312135   0.9297463  )
        13        P      tau(  13) = (   0.0220212   0.2983116   1.1154450  )
        14        P      tau(  14) = (  -0.2279611   0.7312864   1.1153968  )
        15        P      tau(  15) = (   0.5220674   0.2982242   1.1153861  )
        16        P      tau(  16) = (   0.2720835   0.7312605   1.1153926  )
        17        S      tau(  17) = (  -0.0667617   0.1630806   0.8860179  )
        18        S      tau(  18) = (  -0.3167625   0.5960865   0.8859060  )
        19        S      tau(  19) = (   0.4331818   0.1631552   0.8858747  )
        20        S      tau(  20) = (   0.1831759   0.5961449   0.8859552  )
        21        S      tau(  21) = (   0.4334004   0.7221402   0.8869493  )
        22        S      tau(  22) = (   0.6833952   0.2891405   0.8869427  )
        23        S      tau(  23) = (  -0.0665871   0.7221118   0.8869700  )
        24        S      tau(  24) = (   0.1834315   0.2890544   0.8870499  )
        25        S      tau(  25) = (  -0.3011888   0.8755795   0.8867636  )
        26        S      tau(  26) = (  -0.0511890   0.4425641   0.8867811  )
        27        S      tau(  27) = (   0.1987930   0.8756207   0.8868119  )
        28        S      tau(  28) = (   0.4488274   0.4426466   0.8868444  )
        29        S      tau(  29) = (   0.3636684   0.8649526   1.1669113  )
        30        S      tau(  30) = (   0.6135983   0.4319210   1.1669774  )
        31        S      tau(  31) = (  -0.1364838   0.8650579   1.1668940  )
        32        S      tau(  32) = (   0.1135968   0.4320226   1.1669374  )
        33        S      tau(  33) = (   0.0911841   0.1520285   1.1680642  )
        34        S      tau(  34) = (  -0.1587566   0.5849939   1.1679689  )
        35        S      tau(  35) = (   0.5912257   0.1518652   1.1678506  )
        36        S      tau(  36) = (   0.3412407   0.5849353   1.1679192  )
        37        S      tau(  37) = (  -0.3891009   0.7436972   1.1689713  )
        38        S      tau(  38) = (  -0.1391341   0.3106983   1.1689741  )
        39        S      tau(  39) = (   0.1110032   0.7437835   1.1690895  )
        40        S      tau(  40) = (   0.3609880   0.3107528   1.1690854  )
        41        O      tau(  41) = (   0.2516626   0.1286789   1.5280364  )
        42        O      tau(  42) = (  -0.0083551   0.1178060   1.5252400  )
        43        O      tau(  43) = (  -0.0100934   0.3361995   1.4414209  )
        44        O      tau(  44) = (   0.2067988   0.3311484   1.4205217  )
        45        O      tau(  45) = (   0.7518543   0.1286218   1.5279616  )
        46        O      tau(  46) = (   0.4916267   0.1176518   1.5250840  )
        47        O      tau(  47) = (   0.4904086   0.3360868   1.4412273  )
        48        O      tau(  48) = (   0.7073803   0.3314027   1.4208406  )
        49        O      tau(  49) = (   0.0018970   0.5616127   1.5280110  )
        50        O      tau(  50) = (  -0.2584427   0.5511208   1.5253760  )
        51        O      tau(  51) = (  -0.2596734   0.7695067   1.4413168  )
        52        O      tau(  52) = (  -0.0427956   0.7641312   1.4205397  )
        53        O      tau(  53) = (   0.5016657   0.5615195   1.5279006  )
        54        O      tau(  54) = (   0.2416581   0.5508990   1.5247858  )
        55        O      tau(  55) = (   0.2401707   0.7694208   1.4411466  )
        56        O      tau(  56) = (   0.4571281   0.7644464   1.4207836  )
        57        H      tau(  57) = (   0.3299347   0.1247868   1.5517851  )
        58        H      tau(  58) = (   0.2397586   0.0554496   1.4925178  )
        59        H      tau(  59) = (   0.0606799   0.1196799   1.5681697  )
        60        H      tau(  60) = (  -0.0108135   0.1927948   1.4902076  )
        61        H      tau(  61) = (   0.0727510   0.3356565   1.4245941  )
        62        H      tau(  62) = (  -0.0486980   0.3362059   1.3699349  )
        63        H      tau(  63) = (   0.2301230   0.2642480   1.4630432  )
        64        H      tau(  64) = (   0.2321367   0.3978928   1.4606808  )
        65        H      tau(  65) = (   0.8301278   0.1245592   1.5516858  )
        66        H      tau(  66) = (   0.7397973   0.0554875   1.4923137  )
        67        H      tau(  67) = (   0.5605605   0.1194607   1.5681679  )
        68        H      tau(  68) = (   0.4893490   0.1926305   1.4900188  )
        69        H      tau(  69) = (   0.5733121   0.3356712   1.4246811  )
        70        H      tau(  70) = (   0.4520956   0.3361261   1.3695871  )
        71        H      tau(  71) = (   0.7305868   0.2643954   1.4632777  )
        72        H      tau(  72) = (   0.7325298   0.3980533   1.4612445  )
        73        H      tau(  73) = (   0.0802577   0.5575986   1.5514758  )
        74        H      tau(  74) = (  -0.0102971   0.4884021   1.4925821  )
        75        H      tau(  75) = (  -0.1895408   0.5529587   1.5685011  )
        76        H      tau(  76) = (  -0.2607559   0.6261132   1.4903403  )
        77        H      tau(  77) = (  -0.1767986   0.7688238   1.4245798  )
        78        H      tau(  78) = (  -0.2981738   0.7694629   1.3697858  )
        79        H      tau(  79) = (  -0.0195627   0.6971377   1.4629962  )
        80        H      tau(  80) = (  -0.0174932   0.8307896   1.4608379  )
        81        H      tau(  81) = (   0.5799326   0.5576523   1.5516979  )
        82        H      tau(  82) = (   0.4897955   0.4883134   1.4923511  )
        83        H      tau(  83) = (   0.3107043   0.5526764   1.5676954  )
        84        H      tau(  84) = (   0.2392607   0.6259154   1.4898131  )
        85        H      tau(  85) = (   0.3230615   0.7688868   1.4245534  )
        86        H      tau(  86) = (   0.2017818   0.7694366   1.3695420  )
        87        H      tau(  87) = (   0.4803293   0.6974529   1.4632154  )
        88        H      tau(  88) = (   0.4823105   0.8311144   1.4611670  )

     -------------------------------------------------
     Parameters for Dispersion (Grimme-D2) Correction:
     -------------------------------------------------
       atom      VdW radius       C_6     

        Cu         2.952        374.666
        In         3.160       1294.678
        P          3.222        271.980
        S          3.180        193.230
        O          2.536         24.284
        H          1.892          4.857

     number of k points=    54  Gaussian smearing, width (Ry)=  0.0100
                       cart. coord. in units 2pi/alat
        k(    1) = (   0.0833333   0.1443376  -0.2308392), wk =   0.0370370
        k(    2) = (   0.0833333   0.3367877  -0.2308392), wk =   0.0370370
        k(    3) = (   0.0833333   0.5292377  -0.2308392), wk =   0.0370370
        k(    4) = (   0.0833333  -0.4330127  -0.2308392), wk =   0.0370370
        k(    5) = (   0.0833333  -0.2405626  -0.2308392), wk =   0.0370370
        k(    6) = (   0.0833333  -0.0481125  -0.2308392), wk =   0.0370370
        k(    7) = (   0.2500000   0.4330127  -0.2308392), wk =   0.0370370
        k(    8) = (   0.2500000   0.6254628  -0.2308392), wk =   0.0370370
        k(    9) = (   0.2500000  -0.3367877  -0.2308392), wk =   0.0370370
        k(   10) = (   0.2500000  -0.1443376  -0.2308392), wk =   0.0370370
        k(   11) = (   0.4166667   0.7216878  -0.2308392), wk =   0.0370370
        k(   12) = (   0.4166667  -0.2405626  -0.2308392), wk =   0.0370370
        k(   13) = (  -0.0833333   0.1443376   0.2308392), wk =   0.0370370
        k(   14) = (   0.1666667   0.0000000  -0.2308392), wk =   0.0370370
        k(   15) = (  -0.0833333   0.3367877   0.2308392), wk =   0.0370370
        k(   16) = (  -0.2500000   0.2405626  -0.2308392), wk =   0.0370370
        k(   17) = (   0.3333333   0.0962250  -0.2308392), wk =   0.0370370
        k(   18) = (  -0.2500000  -0.2405626   0.2308392), wk =   0.0370370
        k(   19) = (   0.3333333  -0.0962250   0.2308392), wk =   0.0370370
        k(   20) = (  -0.0833333   0.5292377   0.2308392), wk =   0.0370370
        k(   21) = (  -0.4166667   0.3367877  -0.2308392), wk =   0.0370370
        k(   22) = (   0.5000000   0.1924501  -0.2308392), wk =   0.0370370
        k(   23) = (  -0.4166667  -0.3367877   0.2308392), wk =   0.0370370
        k(   24) = (   0.5000000  -0.1924501   0.2308392), wk =   0.0370370
        k(   25) = (  -0.0833333  -0.4330127   0.2308392), wk =   0.0370370
        k(   26) = (   0.4166667  -0.1443376  -0.2308392), wk =   0.0370370
        k(   27) = (  -0.3333333  -0.2886751  -0.2308392), wk =   0.0370370
        k(   28) = (   0.4166667   0.1443376   0.2308392), wk =   0.0370370
        k(   29) = (  -0.3333333   0.2886751   0.2308392), wk =   0.0370370
        k(   30) = (  -0.0833333  -0.2405626   0.2308392), wk =   0.0370370
        k(   31) = (   0.2500000  -0.0481125  -0.2308392), wk =   0.0370370
        k(   32) = (  -0.1666667  -0.1924501  -0.2308392), wk =   0.0370370
        k(   33) = (   0.2500000   0.0481125   0.2308392), wk =   0.0370370
        k(   34) = (  -0.1666667   0.1924501   0.2308392), wk =   0.0370370
        k(   35) = (  -0.0833333  -0.0481125   0.2308392), wk =   0.0370370
        k(   36) = (   0.0000000  -0.0962250  -0.2308392), wk =   0.0370370
        k(   37) = (  -0.2500000   0.4330127   0.2308392), wk =   0.0370370
        k(   38) = (   0.5000000   0.0000000  -0.2308392), wk =   0.0370370
        k(   39) = (  -0.2500000   0.6254628   0.2308392), wk =   0.0370370
        k(   40) = (  -0.4166667   0.5292377  -0.2308392), wk =   0.0370370
        k(   41) = (   0.6666667   0.0962250  -0.2308392), wk =   0.0370370
        k(   42) = (  -0.4166667  -0.5292377   0.2308392), wk =   0.0370370
        k(   43) = (   0.6666667  -0.0962250   0.2308392), wk =   0.0370370
        k(   44) = (  -0.2500000  -0.3367877   0.2308392), wk =   0.0370370
        k(   45) = (   0.4166667   0.0481125  -0.2308392), wk =   0.0370370
        k(   46) = (  -0.1666667  -0.3849002  -0.2308392), wk =   0.0370370
        k(   47) = (   0.4166667  -0.0481125   0.2308392), wk =   0.0370370
        k(   48) = (  -0.1666667   0.3849002   0.2308392), wk =   0.0370370
        k(   49) = (  -0.2500000  -0.1443376   0.2308392), wk =   0.0370370
        k(   50) = (   0.0000000  -0.2886751  -0.2308392), wk =   0.0370370
        k(   51) = (  -0.4166667   0.7216878   0.2308392), wk =   0.0370370
        k(   52) = (   0.8333333   0.0000000  -0.2308392), wk =   0.0370370
        k(   53) = (  -0.4166667  -0.2405626   0.2308392), wk =   0.0370370
        k(   54) = (   0.0000000  -0.4811252  -0.2308392), wk =   0.0370370

     Dense  grid:  2173495 G-vectors     FFT dimensions: ( 135, 135, 288)

     Smooth grid:   768463 G-vectors     FFT dimensions: (  96,  96, 200)

     Estimated max dynamical RAM per process >     207.39 MB

     Estimated total dynamical RAM >      50.29 GB

     Initial potential from superposition of free atoms

     starting charge     429.9975, renormalised to     440.0000

     negative rho (up, down):  3.567E-03 0.000E+00
     Starting wfcs are  312 randomized atomic wfcs

     total cpu time spent up to now is       14.0 secs

     per-process dynamical memory:   100.5 Mb

     Self-consistent Calculation

     iteration #  1     ecut=    40.00 Ry     beta= 0.30
     Davidson diagonalization with overlap
     ethr =  1.00E-02,  avg # of iterations =  9.1

     negative rho (up, down):  1.563E-03 0.000E+00

     total cpu time spent up to now is       47.7 secs

     total energy              =   -3079.82387919 Ry
     estimated scf accuracy    <     690.78110272 Ry

     iteration #  2     ecut=    40.00 Ry     beta= 0.30
     Davidson diagonalization with overlap
     ethr =  1.00E-02,  avg # of iterations = 12.1

     negative rho (up, down):  3.113E-03 0.000E+00

     total cpu time spent up to now is      123.9 secs

     total energy              =   -2996.83540226 Ry
     estimated scf accuracy    <   15031.42698317 Ry

     iteration #  3     ecut=    40.00 Ry     beta= 0.30
     Davidson diagonalization with overlap
     ethr =  1.00E-02,  avg # of iterations = 12.4

     negative rho (up, down):  4.002E-03 0.000E+00

     total cpu time spent up to now is      196.8 secs

     total energy              =   -3382.12004314 Ry
     estimated scf accuracy    <     681.36552996 Ry

     iteration #  4     ecut=    40.00 Ry     beta= 0.30
     Davidson diagonalization with overlap
     ethr =  1.00E-02,  avg # of iterations =  6.4

     negative rho (up, down):  4.669E-03 0.000E+00

     total cpu time spent up to now is      224.0 secs

     total energy              =   -3411.50776771 Ry
     estimated scf accuracy    <      23.62205790 Ry

     iteration #  5     ecut=    40.00 Ry     beta= 0.30
     Davidson diagonalization with overlap
     ethr =  5.37E-03,  avg # of iterations =  1.3

     negative rho (up, down):  4.598E-03 0.000E+00

     total cpu time spent up to now is      241.0 secs

     total energy              =   -3409.22360317 Ry
     estimated scf accuracy    <      12.91047115 Ry

     iteration #  6     ecut=    40.00 Ry     beta= 0.30
     Davidson diagonalization with overlap
     ethr =  2.93E-03,  avg # of iterations =  2.0

     negative rho (up, down):  4.460E-03 0.000E+00

     total cpu time spent up to now is      259.2 secs

     total energy              =   -3408.72454008 Ry
     estimated scf accuracy    <       7.08653335 Ry

     iteration #  7     ecut=    40.00 Ry     beta= 0.30
     Davidson diagonalization with overlap
     ethr =  1.61E-03,  avg # of iterations =  4.8

     negative rho (up, down):  4.441E-03 0.000E+00

     total cpu time spent up to now is      279.1 secs

     total energy              =   -3408.28325302 Ry
     estimated scf accuracy    <       3.56763432 Ry

     iteration #  8     ecut=    40.00 Ry     beta= 0.30
     Davidson diagonalization with overlap
     ethr =  8.11E-04,  avg # of iterations =  9.0

     negative rho (up, down):  4.614E-03 0.000E+00

     total cpu time spent up to now is      305.5 secs

     total energy              =   -3408.18567257 Ry
     estimated scf accuracy    <       1.23251124 Ry

     iteration #  9     ecut=    40.00 Ry     beta= 0.30
     Davidson diagonalization with overlap
     ethr =  2.80E-04,  avg # of iterations =  9.6

     negative rho (up, down):  4.888E-03 0.000E+00

     total cpu time spent up to now is      328.9 secs

     total energy              =   -3408.14117755 Ry
     estimated scf accuracy    <       0.51339000 Ry

     iteration # 10     ecut=    40.00 Ry     beta= 0.30
     Davidson diagonalization with overlap
     ethr =  1.17E-04,  avg # of iterations = 12.8

     negative rho (up, down):  2.021E-02 0.000E+00

     total cpu time spent up to now is      358.0 secs

     total energy              =   -3408.11461285 Ry
     estimated scf accuracy    <       0.18791246 Ry

     iteration # 11     ecut=    40.00 Ry     beta= 0.30
     Davidson diagonalization with overlap
     ethr =  4.27E-05,  avg # of iterations = 14.2

     negative rho (up, down):  5.139E-03 0.000E+00

     total cpu time spent up to now is      387.6 secs

     total energy              =   -3408.12433820 Ry
     estimated scf accuracy    <       0.05860156 Ry

     iteration # 12     ecut=    40.00 Ry     beta= 0.30
     Davidson diagonalization with overlap
     c_bands:  1 eigenvalues not converged
     c_bands:  1 eigenvalues not converged
     c_bands:  1 eigenvalues not converged
     c_bands:  1 eigenvalues not converged
     c_bands:  1 eigenvalues not converged
     ethr =  1.33E-05,  avg # of iterations = 16.5

     negative rho (up, down):  8.154E-03 0.000E+00

     total cpu time spent up to now is      417.1 secs

     total energy              =   -3408.08983712 Ry
     estimated scf accuracy    <       0.09103638 Ry

     iteration # 13     ecut=    40.00 Ry     beta= 0.30
     Davidson diagonalization with overlap
     c_bands:  1 eigenvalues not converged
     c_bands:  1 eigenvalues not converged
     c_bands:  2 eigenvalues not converged
     c_bands:  1 eigenvalues not converged
     ethr =  1.33E-05,  avg # of iterations = 17.4

     negative rho (up, down):  1.264E-02 0.000E+00

     total cpu time spent up to now is      452.6 secs

     total energy              =   -3408.09916726 Ry
     estimated scf accuracy    <       0.00934162 Ry

     iteration # 14     ecut=    40.00 Ry     beta= 0.30
     Davidson diagonalization with overlap
     c_bands:  1 eigenvalues not converged
     ethr =  2.12E-06,  avg # of iterations = 15.8

     negative rho (up, down):  8.223E-03 0.000E+00

     total cpu time spent up to now is      481.8 secs

     total energy              =   -3408.09928258 Ry
     estimated scf accuracy    <       0.00163510 Ry

     iteration # 15     ecut=    40.00 Ry     beta= 0.30
     Davidson diagonalization with overlap
     c_bands:  1 eigenvalues not converged
     ethr =  3.72E-07,  avg # of iterations = 12.1

     negative rho (up, down):  7.371E-03 0.000E+00

     total cpu time spent up to now is      517.2 secs

     total energy              =   -3408.09996755 Ry
     estimated scf accuracy    <       0.00046930 Ry

     iteration # 16     ecut=    40.00 Ry     beta= 0.30
     Davidson diagonalization with overlap
     ethr =  1.07E-07,  avg # of iterations =  2.4

     negative rho (up, down):  6.705E-03 0.000E+00

     total cpu time spent up to now is      536.1 secs

     total energy              =   -3408.10001729 Ry
     estimated scf accuracy    <       0.00008512 Ry

     iteration # 17     ecut=    40.00 Ry     beta= 0.30
     Davidson diagonalization with overlap
     ethr =  1.93E-08,  avg # of iterations =  6.2

     negative rho (up, down):  6.505E-03 0.000E+00

     total cpu time spent up to now is      562.6 secs

     total energy              =   -3408.10004770 Ry
     estimated scf accuracy    <       0.00003944 Ry

     iteration # 18     ecut=    40.00 Ry     beta= 0.30
     Davidson diagonalization with overlap
     ethr =  8.96E-09,  avg # of iterations =  2.6

     negative rho (up, down):  6.409E-03 0.000E+00

     total cpu time spent up to now is      581.4 secs

     total energy              =   -3408.10005367 Ry
     estimated scf accuracy    <       0.00000476 Ry

     iteration # 19     ecut=    40.00 Ry     beta= 0.30
     Davidson diagonalization with overlap
     ethr =  1.08E-09,  avg # of iterations =  3.5

     negative rho (up, down):  6.381E-03 0.000E+00

     total cpu time spent up to now is      600.8 secs

     total energy              =   -3408.10005411 Ry
     estimated scf accuracy    <       0.00000130 Ry

     iteration # 20     ecut=    40.00 Ry     beta= 0.30
     Davidson diagonalization with overlap
     ethr =  2.95E-10,  avg # of iterations =  3.4

     negative rho (up, down):  6.381E-03 0.000E+00

     total cpu time spent up to now is      621.9 secs

     total energy              =   -3408.10005433 Ry
     estimated scf accuracy    <       0.00000031 Ry

     iteration # 21     ecut=    40.00 Ry     beta= 0.30
     Davidson diagonalization with overlap
     ethr =  7.01E-11,  avg # of iterations =  3.0

     negative rho (up, down):  6.382E-03 0.000E+00

     total cpu time spent up to now is      641.7 secs

     total energy              =   -3408.10005437 Ry
     estimated scf accuracy    <       0.00000004 Ry

     iteration # 22     ecut=    40.00 Ry     beta= 0.30
     Davidson diagonalization with overlap
     ethr =  9.00E-12,  avg # of iterations =  4.5

     negative rho (up, down):  6.382E-03 0.000E+00

     total cpu time spent up to now is      666.0 secs

     total energy              =   -3408.10005438 Ry
     estimated scf accuracy    <       0.00000003 Ry

     iteration # 23     ecut=    40.00 Ry     beta= 0.30
     Davidson diagonalization with overlap
     ethr =  7.04E-12,  avg # of iterations =  2.1

     negative rho (up, down):  6.382E-03 0.000E+00

     total cpu time spent up to now is      684.5 secs

     End of self-consistent calculation

          k = 0.0833 0.1443-0.2308 ( 95992 PWs)   bands (ev):

  -113.6384-113.6383-113.6376-113.6376 -71.1136 -71.1133 -71.1127 -71.1126
   -71.1093 -71.1087 -71.1082 -71.1079 -70.9373 -70.9373 -70.9368 -70.9367
   -22.1667 -22.0595 -22.0396 -22.0282 -21.8212 -21.8167 -21.7012 -21.6686
   -21.6476 -21.6371 -21.4860 -21.4626 -21.3860 -21.3714 -21.3119 -21.2021
   -18.2028 -18.0518 -18.0514 -18.0434 -17.2344 -17.2324 -17.2322 -17.1954
   -16.8055 -16.7888 -16.7700 -16.7644 -16.7641 -16.5504 -16.5494 -16.5375
   -16.5163 -16.5145 -16.5140 -16.5139 -16.5133 -16.5022 -16.5017 -16.5009
   -16.4843 -16.4140 -16.4110 -16.3960 -15.7107 -15.6947 -15.6894 -15.2854
   -15.2690 -15.2684 -15.1321 -15.1191 -14.9855 -14.9642 -14.9609 -14.6381
   -14.6278 -14.6268 -14.5327 -14.5148 -12.4614 -11.8697 -11.8614 -11.8399
   -10.6798 -10.1875 -10.1869 -10.1478  -9.9186  -9.8936  -9.8912  -9.8420
    -9.8240  -9.8146  -9.7077  -9.7032  -9.6968  -9.6838  -9.5971  -9.5459
    -9.2936  -9.2237  -9.1437  -9.0875  -9.0446  -8.8230  -8.8156  -8.7881
    -8.1399  -8.1359  -8.1116  -8.0556  -8.0096  -7.8347  -7.8056  -7.8017
    -7.5555  -7.5508  -7.5360  -7.4870  -7.4015  -7.2931  -6.9708  -6.9356
    -6.9019  -6.9014  -6.8763  -6.8744  -6.7129  -6.6981  -6.6925  -6.6786
    -6.6552  -6.6155  -6.4170  -6.3378  -6.2704  -6.1569  -5.9254  -5.9163
    -5.9143  -5.9108  -5.8392  -5.6795  -5.6653  -5.6491  -5.5628  -5.5618
    -5.4884  -5.4521  -5.3205  -5.3056  -5.2980  -5.2932  -5.2578  -5.2317
    -5.1207  -5.1171  -5.1107  -5.1068  -4.9146  -4.9125  -4.8993  -4.8974
    -4.8761  -4.6377  -4.6330  -4.6316  -4.4962  -4.4779  -4.4762  -4.3338
    -4.3220  -4.3102  -4.2963  -4.2698  -4.2657  -4.2480  -4.2017  -4.1994
    -4.1729  -4.1545  -4.1353  -4.1239  -4.1165  -4.1067  -4.0853  -4.0759
    -4.0391  -4.0372  -3.9804  -3.9349  -3.9328  -3.8985  -3.8556  -3.8261
    -3.7509  -3.7418  -3.7312  -3.5711  -3.5602  -3.5534  -3.4838  -3.4281
    -3.3768  -3.3322  -3.3286  -3.3084  -3.2770  -3.2715  -3.2484  -3.2136
    -3.1813  -3.1678  -3.1306  -3.0712  -2.8712  -2.8577  -2.8543  -2.7086
    -2.7050  -2.6519  -2.5381  -2.4609  -0.6582  -0.3064  -0.2841  -0.2677
     0.3226   0.5325   0.5718   0.6000   0.6639   0.6875   0.6887   0.8348
     0.8906   0.9000   1.0419   1.0600   1.0735   1.0830   1.0970   1.3694
     1.4847   1.5320   1.5594   1.5848   1.8582   1.8696   1.8852   1.9124
     2.2973   2.3483   2.3491   2.3611   2.3803   2.5931   2.6757   2.7282
     2.7319   3.0025   3.0211   3.0424   3.0516   3.1159   3.1209   3.2287
     3.2398   3.2995   3.3668   3.3755   3.3944   3.4633   3.5495   3.5998
     3.6226   3.7188   3.9059   3.9314   3.9531   4.0977   4.1399   4.1520
     4.2130   4.2516   4.2842   4.3115   4.3533   4.4098   4.4131   4.4177
     4.4342   4.5003   4.5498   4.5689   4.6150   4.6277   4.6631   4.7052
     4.7430   4.8196   4.8628   4.9142

          k = 0.0833 0.3368-0.2308 ( 96032 PWs)   bands (ev):

  -113.6384-113.6383-113.6376-113.6376 -71.1136 -71.1133 -71.1127 -71.1126
   -71.1093 -71.1087 -71.1082 -71.1080 -70.9373 -70.9373 -70.9368 -70.9367
   -22.1488 -22.0630 -22.0547 -22.0531 -21.7873 -21.7794 -21.7170 -21.6954
   -21.6328 -21.6303 -21.5222 -21.5028 -21.3645 -21.3268 -21.3068 -21.2215
   -18.1787 -18.0792 -18.0570 -18.0394 -17.2299 -17.2292 -17.2261 -17.2062
   -16.8019 -16.7911 -16.7827 -16.7762 -16.7405 -16.5770 -16.5454 -16.5256
   -16.5155 -16.5137 -16.5133 -16.5130 -16.5129 -16.5057 -16.5026 -16.5021
   -16.4816 -16.4426 -16.4159 -16.3785 -15.6883 -15.6418 -15.5966 -15.3462
   -15.3066 -15.2468 -15.2273 -15.1486 -14.9760 -14.9300 -14.8849 -14.6584
   -14.6363 -14.6081 -14.6045 -14.5345 -12.3473 -11.9546 -11.8769 -11.8095
   -10.6014 -10.2762 -10.1826 -10.1013  -9.9166  -9.8987  -9.8791  -9.8334
    -9.8277  -9.8160  -9.7279  -9.7239  -9.6921  -9.6831  -9.5762  -9.5442
    -9.2747  -9.2415  -9.1267  -9.0650  -9.0421  -8.8566  -8.7911  -8.7123
    -8.2195  -8.1872  -8.1488  -8.1306  -7.9463  -7.8831  -7.8361  -7.8092
    -7.6604  -7.6431  -7.5860  -7.5800  -7.3013  -7.2514  -7.0202  -7.0126
    -6.9711  -6.9292  -6.9165  -6.8703  -6.6189  -6.5932  -6.5712  -6.5489
    -6.5479  -6.5175  -6.4334  -6.3979  -6.2973  -6.0889  -6.0180  -5.8741
    -5.8597  -5.8469  -5.8062  -5.6690  -5.6651  -5.6081  -5.5359  -5.5312
    -5.4422  -5.4259  -5.3662  -5.3211  -5.3019  -5.2645  -5.2574  -5.2151
    -5.1377  -5.1307  -5.1279  -5.1242  -4.9441  -4.9372  -4.9248  -4.9196
    -4.8889  -4.6968  -4.6951  -4.6693  -4.4855  -4.4776  -4.4729  -4.3354
    -4.3290  -4.3120  -4.2954  -4.2940  -4.2391  -4.2376  -4.2007  -4.1709
    -4.1477  -4.1279  -4.1140  -4.1054  -4.0942  -4.0912  -4.0487  -4.0297
    -4.0148  -3.9984  -3.9706  -3.9455  -3.9310  -3.9070  -3.8439  -3.8227
    -3.7443  -3.7293  -3.7191  -3.6085  -3.5271  -3.5058  -3.4918  -3.4391
    -3.4151  -3.3266  -3.3225  -3.3215  -3.2994  -3.2645  -3.2434  -3.2219
    -3.2020  -3.1537  -3.1409  -3.0992  -2.9079  -2.8988  -2.8645  -2.8418
    -2.7547  -2.7120  -2.6088  -2.5566  -0.4518  -0.3592  -0.3032  -0.2140
     0.4147   0.4611   0.4809   0.6184   0.6403   0.7504   0.8333   0.8831
     0.8909   0.9929   1.0000   1.0274   1.0625   1.1158   1.1320   1.3506
     1.3866   1.5082   1.5342   1.5783   1.8361   1.9177   1.9599   1.9805
     2.2145   2.2642   2.2979   2.3000   2.4295   2.5973   2.6498   2.6755
     2.7070   2.8292   2.9509   3.0114   3.0190   3.0769   3.1714   3.2102
     3.2179   3.3563   3.3754   3.4370   3.4508   3.4649   3.6222   3.6897
     3.7021   3.8437   3.9319   3.9522   3.9796   4.0190   4.0584   4.1604
     4.2285   4.2333   4.2602   4.2665   4.3523   4.3963   4.4432   4.4772
     4.4791   4.4961   4.6026   4.6138   4.6873   4.6895   4.7379   4.7525
     4.8601   4.8899   4.9439   4.9547

          k = 0.0833 0.5292-0.2308 ( 96076 PWs)   bands (ev):

  -113.6384-113.6383-113.6376-113.6376 -71.1136 -71.1133 -71.1127 -71.1126
   -71.1093 -71.1087 -71.1082 -71.1080 -70.9373 -70.9373 -70.9368 -70.9367
   -22.1186 -22.1027 -22.0664 -22.0456 -21.7519 -21.7465 -21.7367 -21.7327
   -21.6034 -21.5998 -21.5631 -21.5522 -21.3443 -21.3088 -21.2792 -21.2546
   -18.1408 -18.1195 -18.0599 -18.0375 -17.2259 -17.2229 -17.2218 -17.2182
   -16.8044 -16.7965 -16.7938 -16.7895 -16.6711 -16.6340 -16.5411 -16.5212
   -16.5143 -16.5134 -16.5124 -16.5121 -16.5109 -16.5099 -16.5043 -16.5024
   -16.4745 -16.4676 -16.4149 -16.3680 -15.6595 -15.6053 -15.4513 -15.3986
   -15.3708 -15.3383 -15.2096 -15.1914 -14.9615 -14.9146 -14.7724 -14.7098
   -14.6750 -14.6432 -14.5792 -14.5654 -12.1853 -12.1019 -11.8782 -11.7911
   -10.4778 -10.4078 -10.1739 -10.0720  -9.9117  -9.9073  -9.8579  -9.8483
    -9.8208  -9.8122  -9.7501  -9.7340  -9.6865  -9.6844  -9.5543  -9.5494
    -9.2654  -9.2523  -9.1010  -9.0921  -8.9709  -8.9292  -8.7548  -8.6467
    -8.2539  -8.2360  -8.2077  -8.1951  -7.8751  -7.8646  -7.8292  -7.8054
    -7.7848  -7.7320  -7.6435  -7.6409  -7.1770  -7.1535  -7.1129  -7.0577
    -7.0491  -6.9678  -6.9351  -6.8680  -6.5632  -6.5505  -6.5060  -6.5030
    -6.4829  -6.4675  -6.4115  -6.4011  -6.2391  -6.1331  -5.9962  -5.9290
    -5.8276  -5.7974  -5.6776  -5.6627  -5.6543  -5.5909  -5.5313  -5.4869
    -5.4865  -5.4206  -5.3589  -5.3088  -5.3022  -5.2908  -5.2508  -5.2045
    -5.1598  -5.1432  -5.1311  -5.1160  -4.9978  -4.9936  -4.8979  -4.8929
    -4.8599  -4.7997  -4.7336  -4.7310  -4.4670  -4.4547  -4.4303  -4.3759
    -4.3207  -4.3159  -4.2966  -4.2924  -4.2407  -4.2303  -4.1595  -4.1412
    -4.1327  -4.1241  -4.1012  -4.0925  -4.0896  -4.0842  -4.0025  -3.9967
    -3.9806  -3.9802  -3.9584  -3.9523  -3.9224  -3.9175  -3.8350  -3.8235
    -3.7894  -3.7860  -3.7564  -3.7298  -3.4635  -3.4627  -3.4614  -3.4426
    -3.3836  -3.3456  -3.3260  -3.3257  -3.3121  -3.2875  -3.2766  -3.2041
    -3.1584  -3.1267  -3.1176  -3.0502  -2.9702  -2.9570  -2.9179  -2.9088
    -2.8082  -2.7096  -2.6950  -2.5834  -0.3910  -0.3244  -0.2794  -0.2308
     0.3215   0.4217   0.5599   0.5721   0.5938   0.7395   0.8681   0.9328
     1.0090   1.0139   1.0147   1.0483   1.0580   1.1338   1.2733   1.3254
     1.3409   1.4318   1.5287   1.5615   1.8086   1.9586   2.0731   2.0751
     2.1939   2.2101   2.2605   2.2635   2.4743   2.5233   2.5734   2.5742
     2.6490   2.6709   2.9124   3.0645   3.0716   3.1019   3.1624   3.2245
     3.3484   3.3534   3.4039   3.4258   3.4990   3.5881   3.5988   3.6616
     3.6621   3.6943   3.9309   3.9497   3.9826   4.0959   4.1029   4.1206
     4.1383   4.2439   4.2815   4.2899   4.3168   4.4059   4.5143   4.5363
     4.5406   4.5495   4.6217   4.6793   4.6876   4.6959   4.8158   4.8374
     4.8707   4.8774   4.9664   4.9953

          k = 0.0833-0.4330-0.2308 ( 96090 PWs)   bands (ev):

  -113.6384-113.6383-113.6376-113.6376 -71.1136 -71.1133 -71.1127 -71.1126
   -71.1093 -71.1087 -71.1082 -71.1080 -70.9373 -70.9373 -70.9368 -70.9367
   -22.1368 -22.0801 -22.0714 -22.0364 -21.7925 -21.7735 -21.7102 -21.6979
   -21.6015 -21.5957 -21.5612 -21.5590 -21.3320 -21.3215 -21.2976 -21.2391
   -18.1610 -18.0984 -18.0591 -18.0379 -17.2271 -17.2269 -17.2236 -17.2123
   -16.7994 -16.7987 -16.7924 -16.7816 -16.7064 -16.6035 -16.5419 -16.5235
   -16.5144 -16.5135 -16.5128 -16.5127 -16.5125 -16.5072 -16.5045 -16.5014
   -16.4787 -16.4574 -16.4143 -16.3727 -15.6685 -15.6240 -15.5252 -15.3843
   -15.3164 -15.2974 -15.2346 -15.1657 -14.9627 -14.9273 -14.8256 -14.6703
   -14.6572 -14.6380 -14.5972 -14.5474 -12.2697 -12.0228 -11.8794 -11.7962
   -10.5435 -10.3392 -10.1770 -10.0828  -9.9137  -9.9037  -9.8709  -9.8358
    -9.8216  -9.8167  -9.7514  -9.7229  -9.6891  -9.6831  -9.5636  -9.5418
    -9.2884  -9.2320  -9.1199  -9.0730  -9.0086  -8.8916  -8.7649  -8.6776
    -8.2516  -8.2253  -8.1778  -8.1443  -7.9158  -7.8994  -7.8313  -7.8000
    -7.7375  -7.6844  -7.6185  -7.6177  -7.2290  -7.2143  -7.0737  -7.0387
    -6.9817  -6.9536  -6.9277  -6.8758  -6.6195  -6.5666  -6.5639  -6.5637
    -6.4593  -6.4479  -6.4069  -6.3841  -6.2342  -6.1349  -6.0229  -5.9168
    -5.8468  -5.8037  -5.7382  -5.6948  -5.6235  -5.5935  -5.5447  -5.4630
    -5.4574  -5.4244  -5.3823  -5.3405  -5.2789  -5.2782  -5.2652  -5.2053
    -5.1511  -5.1438  -5.1343  -5.1284  -4.9770  -4.9328  -4.9296  -4.9019
    -4.8932  -4.7577  -4.7169  -4.6871  -4.4737  -4.4602  -4.4481  -4.3692
    -4.3235  -4.3150  -4.2942  -4.2888  -4.2540  -4.2301  -4.1859  -4.1604
    -4.1392  -4.1133  -4.0968  -4.0926  -4.0897  -4.0883  -4.0291  -4.0015
    -3.9977  -3.9828  -3.9660  -3.9568  -3.9266  -3.9129  -3.8325  -3.8267
    -3.7582  -3.7523  -3.7238  -3.7065  -3.5110  -3.4836  -3.4440  -3.4279
    -3.4042  -3.3763  -3.3293  -3.3099  -3.2867  -3.2818  -3.2549  -3.2319
    -3.1650  -3.1401  -3.1080  -3.0975  -2.9690  -2.9424  -2.8774  -2.8455
    -2.8065  -2.7219  -2.6433  -2.5867  -0.3907  -0.3551  -0.3056  -0.2116
     0.3439   0.4633   0.5211   0.5775   0.5969   0.7870   0.8287   0.9355
     0.9409   1.0112   1.0296   1.0649   1.0742   1.0808   1.1759   1.3429
     1.4138   1.4328   1.5466   1.5603   1.8273   1.9255   2.0201   2.0218
     2.1814   2.2607   2.2622   2.2798   2.4550   2.5892   2.6127   2.6194
     2.6283   2.7655   2.9355   3.0264   3.0517   3.0922   3.1207   3.2106
     3.2717   3.4060   3.4305   3.4396   3.4400   3.5132   3.6164   3.6665
     3.6910   3.8001   3.9090   3.9501   4.0033   4.0814   4.1237   4.1260
     4.1790   4.2095   4.2318   4.3176   4.3403   4.3474   4.4676   4.4740
     4.4776   4.5749   4.6443   4.6616   4.6921   4.6936   4.7952   4.8198
     4.8380   4.8630   4.9043   4.9989

          k = 0.0833-0.2406-0.2308 ( 96078 PWs)   bands (ev):

  -113.6384-113.6383-113.6376-113.6376 -71.1136 -71.1133 -71.1127 -71.1126
   -71.1093 -71.1087 -71.1082 -71.1080 -70.9373 -70.9373 -70.9368 -70.9367
   -22.1604 -22.0704 -22.0409 -22.0283 -21.8250 -21.8108 -21.6924 -21.6698
   -21.6316 -21.6218 -21.5185 -21.5105 -21.3459 -21.3440 -21.3250 -21.2113
   -18.1929 -18.0631 -18.0549 -18.0407 -17.2318 -17.2316 -17.2299 -17.2002
   -16.8046 -16.7789 -16.7743 -16.7683 -16.7682 -16.5615 -16.5468 -16.5325
   -16.5158 -16.5139 -16.5139 -16.5137 -16.5132 -16.5034 -16.5032 -16.5003
   -16.4832 -16.4262 -16.4136 -16.3890 -15.7006 -15.6713 -15.6517 -15.3202
   -15.2729 -15.2648 -15.1751 -15.1273 -14.9772 -14.9546 -14.9260 -14.6488
   -14.6289 -14.6209 -14.5643 -14.5219 -12.4136 -11.8993 -11.8780 -11.8209
   -10.6475 -10.2246 -10.1861 -10.1250  -9.9171  -9.8948  -9.8890  -9.8347
    -9.8231  -9.8190  -9.7307  -9.7028  -9.6946  -9.6829  -9.5834  -9.5415
    -9.3027  -9.2188  -9.1403  -9.0698  -9.0491  -8.8334  -8.8054  -8.7584
    -8.1847  -8.1653  -8.1046  -8.0897  -7.9833  -7.8687  -7.8252  -7.8040
    -7.6190  -7.5701  -7.5595  -7.5269  -7.3654  -7.2744  -6.9861  -6.9574
    -6.9323  -6.9219  -6.8932  -6.8814  -6.6860  -6.6570  -6.6351  -6.6333
    -6.6033  -6.5994  -6.3625  -6.3507  -6.2635  -6.1147  -6.0191  -5.8966
    -5.8905  -5.8746  -5.8472  -5.6854  -5.6492  -5.6258  -5.5412  -5.5110
    -5.4704  -5.4538  -5.3365  -5.3260  -5.3038  -5.2892  -5.2653  -5.2138
    -5.1280  -5.1250  -5.1244  -5.1090  -4.9339  -4.9297  -4.9194  -4.8939
    -4.8760  -4.6850  -4.6426  -4.6240  -4.4912  -4.4864  -4.4780  -4.3317
    -4.3305  -4.3124  -4.2923  -4.2827  -4.2671  -4.2491  -4.2054  -4.1711
    -4.1694  -4.1552  -4.1206  -4.1141  -4.0942  -4.0917  -4.0609  -4.0543
    -4.0300  -4.0239  -3.9765  -3.9434  -3.9323  -3.9029  -3.8448  -3.8267
    -3.7462  -3.7257  -3.7246  -3.5662  -3.5434  -3.5237  -3.5105  -3.4386
    -3.3704  -3.3456  -3.3198  -3.3074  -3.3056  -3.2618  -3.2535  -3.2023
    -3.1920  -3.1633  -3.1495  -3.1045  -2.9235  -2.8604  -2.8418  -2.7643
    -2.7222  -2.6273  -2.6234  -2.5131  -0.5619  -0.3546  -0.2691  -0.2395
     0.3900   0.4555   0.5621   0.5958   0.6421   0.7687   0.7695   0.8158
     0.8886   0.9454   1.0116   1.0566   1.0753   1.0778   1.0965   1.3861
     1.4651   1.4773   1.5564   1.5926   1.8427   1.8952   1.9002   1.9345
     2.2747   2.2796   2.3201   2.3446   2.3974   2.5955   2.7072   2.7175
     2.7369   2.9568   2.9792   2.9882   3.0312   3.0848   3.1307   3.1638
     3.2385   3.3295   3.3378   3.3982   3.4491   3.4575   3.6165   3.6243
     3.6967   3.8607   3.9404   3.9417   3.9518   4.0787   4.0969   4.1074
     4.1370   4.2620   4.2631   4.2812   4.3839   4.4001   4.4243   4.4274
     4.4931   4.5051   4.5654   4.5703   4.6086   4.6440   4.6583   4.7969
     4.7973   4.8595   4.9104   4.9331

          k = 0.0833-0.0481-0.2308 ( 96016 PWs)   bands (ev):

  -113.6384-113.6383-113.6376-113.6376 -71.1136 -71.1133 -71.1127 -71.1126
   -71.1093 -71.1087 -71.1082 -71.1079 -70.9373 -70.9373 -70.9368 -70.9367
   -22.1707 -22.0655 -22.0285 -22.0175 -21.8363 -21.8306 -21.6952 -21.6591
   -21.6481 -21.6300 -21.4821 -21.4685 -21.3810 -21.3761 -21.3189 -21.1986
   -18.2079 -18.0491 -18.0458 -18.0453 -17.2349 -17.2347 -17.2329 -17.1927
   -16.8051 -16.8005 -16.7618 -16.7615 -16.7606 -16.5476 -16.5463 -16.5445
   -16.5165 -16.5144 -16.5142 -16.5141 -16.5135 -16.5021 -16.5013 -16.5001
   -16.4848 -16.4088 -16.4053 -16.4026 -15.7152 -15.7120 -15.7053 -15.2753
   -15.2698 -15.2573 -15.1208 -15.1031 -14.9815 -14.9801 -14.9773 -14.6313
   -14.6310 -14.6275 -14.5168 -14.5109 -12.4869 -11.8657 -11.8501 -11.8417
   -10.6962 -10.1804 -10.1683 -10.1676  -9.9185  -9.8973  -9.8894  -9.8425
    -9.8270  -9.8116  -9.7092  -9.6983  -9.6920  -9.6839  -9.5999  -9.5463
    -9.3041  -9.2157  -9.1486  -9.0965  -9.0395  -8.8211  -8.8145  -8.8086
    -8.1271  -8.1153  -8.0994  -8.0479  -8.0126  -7.8191  -7.7979  -7.7905
    -7.5433  -7.5261  -7.5166  -7.4523  -7.4280  -7.3009  -6.9452  -6.9119
    -6.8939  -6.8865  -6.8684  -6.8604  -6.7625  -6.7365  -6.7320  -6.7115
    -6.6963  -6.6500  -6.4026  -6.3180  -6.2432  -6.1675  -5.9450  -5.9298
    -5.9187  -5.9171  -5.8507  -5.6712  -5.6688  -5.6631  -5.5755  -5.5501
    -5.4896  -5.4700  -5.3221  -5.3157  -5.3004  -5.2817  -5.2582  -5.2361
    -5.1214  -5.1138  -5.1043  -5.0999  -4.9309  -4.9062  -4.8865  -4.8827
    -4.8549  -4.6382  -4.6301  -4.6093  -4.4919  -4.4726  -4.4652  -4.3328
    -4.3145  -4.3069  -4.2904  -4.2853  -4.2627  -4.2595  -4.2063  -4.1834
    -4.1711  -4.1691  -4.1609  -4.1310  -4.1281  -4.1088  -4.0928  -4.0787
    -4.0606  -4.0418  -3.9828  -3.9349  -3.9302  -3.8969  -3.8567  -3.8278
    -3.7529  -3.7487  -3.7485  -3.5951  -3.5634  -3.5591  -3.4653  -3.4212
    -3.4009  -3.3248  -3.3234  -3.3157  -3.2657  -3.2562  -3.2560  -3.1970
    -3.1936  -3.1900  -3.0740  -3.0551  -2.8716  -2.8642  -2.8287  -2.6970
    -2.6723  -2.6664  -2.4701  -2.4482  -0.7188  -0.3061  -0.2902  -0.2654
     0.2805   0.5682   0.5726   0.6097   0.6422   0.6460   0.6662   0.8652
     0.8689   0.8747   1.0605   1.0687   1.0833   1.0866   1.0917   1.3710
     1.5366   1.5430   1.5485   1.5844   1.8360   1.8662   1.8960   1.9034
     2.2979   2.3274   2.3727   2.4100   2.4156   2.5873   2.6869   2.6983
     2.7007   3.0024   3.0567   3.0831   3.0841   3.0861   3.2277   3.2310
     3.2434   3.2821   3.3454   3.3488   3.3943   3.4293   3.5670   3.5858
     3.6060   3.7490   3.7577   3.8054   3.9230   4.1078   4.1875   4.2218
     4.2618   4.2644   4.3170   4.3377   4.3537   4.3800   4.4073   4.4097
     4.4263   4.4893   4.5105   4.5845   4.5865   4.5918   4.6841   4.7154
     4.7619   4.7879   4.8346   4.9145

          k = 0.2500 0.4330-0.2308 ( 96066 PWs)   bands (ev):

  -113.6384-113.6383-113.6376-113.6376 -71.1136 -71.1133 -71.1127 -71.1126
   -71.1093 -71.1087 -71.1082 -71.1080 -70.9373 -70.9373 -70.9368 -70.9367
   -22.1253 -22.0895 -22.0802 -22.0346 -21.7536 -21.7413 -21.7398 -21.7304
   -21.6412 -21.6320 -21.5243 -21.4971 -21.3805 -21.3155 -21.2785 -21.2428
   -18.1485 -18.0902 -18.0898 -18.0293 -17.2274 -17.2255 -17.2193 -17.2161
   -16.8078 -16.7976 -16.7913 -16.7892 -16.6830 -16.5836 -16.5820 -16.5149
   -16.5148 -16.5134 -16.5133 -16.5124 -16.5109 -16.5080 -16.5065 -16.5017
   -16.4765 -16.4517 -16.4499 -16.3459 -15.6805 -15.5384 -15.5311 -15.4236
   -15.3358 -15.2668 -15.2611 -15.1889 -14.9761 -14.8508 -14.8433 -14.6893
   -14.6885 -14.6086 -14.6056 -14.5590 -12.2171 -11.9941 -11.9882 -11.7580
   -10.5011 -10.2990 -10.2983 -10.0324  -9.9052  -9.8917  -9.8449  -9.8423
    -9.8208  -9.8150  -9.7659  -9.7165  -9.6827  -9.6818  -9.6073  -9.5865
    -9.2390  -9.2072  -9.1231  -9.0981  -8.9842  -8.8604  -8.8528  -8.5984
    -8.2686  -8.2597  -8.2080  -8.0760  -8.0217  -7.8588  -7.8004  -7.7887
    -7.7820  -7.6802  -7.6787  -7.6617  -7.2000  -7.1651  -7.1150  -7.0685
    -7.0432  -6.9443  -6.9362  -6.8278  -6.5545  -6.5449  -6.5241  -6.4913
    -6.4571  -6.4520  -6.4404  -6.4192  -6.2931  -6.0842  -6.0106  -5.8905
    -5.7781  -5.7611  -5.7592  -5.6934  -5.6137  -5.6001  -5.5764  -5.5376
    -5.4592  -5.4351  -5.3458  -5.3145  -5.2765  -5.2632  -5.2425  -5.2196
    -5.1650  -5.1214  -5.1201  -5.1119  -4.9975  -4.9684  -4.9304  -4.8921
    -4.8852  -4.7668  -4.7576  -4.7566  -4.4737  -4.4462  -4.4274  -4.3543
    -4.3208  -4.3072  -4.2971  -4.2968  -4.2183  -4.1988  -4.1799  -4.1785
    -4.1283  -4.1087  -4.0995  -4.0948  -4.0926  -4.0722  -4.0293  -4.0157
    -3.9771  -3.9728  -3.9719  -3.9565  -3.9204  -3.9042  -3.8592  -3.8337
    -3.7730  -3.7595  -3.7505  -3.7386  -3.4991  -3.4662  -3.4586  -3.4418
    -3.4007  -3.3671  -3.3633  -3.3088  -3.2969  -3.2674  -3.2411  -3.1879
    -3.1790  -3.1472  -3.1305  -3.0640  -2.9486  -2.9450  -2.9387  -2.8762
    -2.8277  -2.7708  -2.6443  -2.5216  -0.4164  -0.3151  -0.2539  -0.2454
     0.2755   0.4999   0.5152   0.5303   0.5578   0.8195   0.9181   0.9383
     1.0018   1.0024   1.0064   1.0242   1.1104   1.1390   1.1407   1.2070
     1.3820   1.5155   1.5408   1.5436   1.7528   2.0651   2.0798   2.0806
     2.2041   2.2431   2.2649   2.2832   2.4508   2.5648   2.5908   2.6037
     2.6269   2.7428   2.7447   3.0450   3.0612   3.1237   3.2285   3.2493
     3.3524   3.3554   3.4622   3.4711   3.4768   3.5674   3.6811   3.6973
     3.7113   3.7778   3.7783   3.8877   3.9311   3.9440   3.9711   4.0813
     4.1919   4.2443   4.2575   4.2663   4.4182   4.4547   4.4729   4.4784
     4.5406   4.5531   4.6395   4.6826   4.7172   4.7205   4.8275   4.8461
     4.8598   4.8901   4.9280   4.9664

          k = 0.2500 0.6255-0.2308 ( 96114 PWs)   bands (ev):

  -113.6384-113.6383-113.6376-113.6376 -71.1136 -71.1133 -71.1127 -71.1126
   -71.1093 -71.1087 -71.1082 -71.1080 -70.9373 -70.9373 -70.9368 -70.9367
   -22.1158 -22.0970 -22.0904 -22.0227 -21.7946 -21.7700 -21.7027 -21.7004
   -21.6087 -21.6004 -21.5655 -21.5472 -21.3602 -21.2820 -21.2789 -21.2699
   -18.1297 -18.1095 -18.0924 -18.0270 -17.2261 -17.2239 -17.2200 -17.2177
   -16.8114 -16.7971 -16.7938 -16.7918 -16.6467 -16.6146 -16.5838 -16.5145
   -16.5139 -16.5130 -16.5128 -16.5122 -16.5116 -16.5080 -16.5077 -16.5009
   -16.4709 -16.4632 -16.4525 -16.3384 -15.6747 -15.5181 -15.4678 -15.4455
   -15.4033 -15.2675 -15.2440 -15.2105 -14.9738 -14.8412 -14.7913 -14.7443
   -14.6970 -14.6062 -14.5928 -14.5728 -12.1409 -12.0610 -12.0014 -11.7458
   -10.4364 -10.3680 -10.3019 -10.0161  -9.8994  -9.8985  -9.8393  -9.8331
    -9.8223  -9.8205  -9.7806  -9.7169  -9.6818  -9.6805  -9.5925  -9.5907
    -9.2601  -9.1898  -9.1266  -9.0962  -8.9422  -8.9007  -8.8554  -8.5637
    -8.2847  -8.2495  -8.2444  -8.0838  -8.0117  -7.8496  -7.8147  -7.8064
    -7.7632  -7.7173  -7.6925  -7.6867  -7.1475  -7.1369  -7.1131  -7.0837
    -7.0613  -7.0018  -6.9423  -6.8074  -6.6432  -6.5419  -6.5365  -6.4727
    -6.4523  -6.4036  -6.4030  -6.3582  -6.2265  -6.1165  -5.9981  -5.9689
    -5.7674  -5.7371  -5.7012  -5.6912  -5.6296  -5.5822  -5.5772  -5.5196
    -5.4856  -5.3583  -5.3499  -5.3489  -5.3302  -5.2647  -5.2537  -5.1928
    -5.1913  -5.1099  -5.1035  -5.1025  -4.9888  -4.9728  -4.9644  -4.8749
    -4.8727  -4.8183  -4.7779  -4.7601  -4.4695  -4.4191  -4.3925  -4.3918
    -4.3136  -4.3121  -4.2974  -4.2883  -4.2233  -4.1985  -4.1740  -4.1697
    -4.1350  -4.1122  -4.1052  -4.1007  -4.0802  -4.0586  -4.0097  -4.0050
    -3.9750  -3.9656  -3.9643  -3.9604  -3.9136  -3.9106  -3.8528  -3.8371
    -3.7892  -3.7870  -3.7831  -3.7470  -3.4939  -3.4660  -3.4576  -3.4471
    -3.3730  -3.3690  -3.3605  -3.3053  -3.2831  -3.2784  -3.2746  -3.1784
    -3.1428  -3.1265  -3.1091  -3.0800  -3.0008  -2.9952  -2.9593  -2.8667
    -2.7922  -2.7370  -2.7227  -2.5014  -0.4312  -0.2722  -0.2621  -0.2514
     0.2349   0.4685   0.5085   0.5489   0.5500   0.8161   0.9398   0.9617
     0.9930   0.9956   1.0125   1.0539   1.0738   1.1709   1.1789   1.2222
     1.3292   1.5115   1.5569   1.5690   1.7204   2.1085   2.1195   2.1509
     2.1841   2.2304   2.2518   2.2824   2.4768   2.5609   2.5684   2.5696
     2.6104   2.6690   2.7093   3.0319   3.1297   3.1614   3.1903   3.2748
     3.3874   3.3990   3.4203   3.4292   3.5415   3.6323   3.6401   3.6901
     3.7315   3.7515   3.7668   3.8631   3.8808   3.8926   4.0348   4.1308
     4.2059   4.2186   4.2375   4.2975   4.3071   4.3372   4.4168   4.5232
     4.5765   4.5793   4.6474   4.6980   4.7236   4.7865   4.8286   4.8289
     4.9092   4.9468   4.9877   5.0078

          k = 0.2500-0.3368-0.2308 ( 96066 PWs)   bands (ev):

  -113.6384-113.6383-113.6376-113.6376 -71.1136 -71.1133 -71.1127 -71.1126
   -71.1093 -71.1087 -71.1082 -71.1080 -70.9373 -70.9373 -70.9368 -70.9367
   -22.1434 -22.0944 -22.0513 -22.0186 -21.8255 -21.8058 -21.6794 -21.6709
   -21.6047 -21.5915 -21.5647 -21.5590 -21.3419 -21.3219 -21.2988 -21.2345
   -18.1654 -18.0858 -18.0718 -18.0331 -17.2289 -17.2277 -17.2228 -17.2110
   -16.8004 -16.7991 -16.7846 -16.7835 -16.7142 -16.5808 -16.5625 -16.5204
   -16.5143 -16.5136 -16.5133 -16.5133 -16.5129 -16.5070 -16.5044 -16.5003
   -16.4793 -16.4480 -16.4333 -16.3611 -15.6864 -15.5945 -15.5640 -15.3909
   -15.2929 -15.2805 -15.2445 -15.1602 -14.9745 -14.8885 -14.8674 -14.6761
   -14.6442 -14.6253 -14.6059 -14.5451 -12.2898 -11.9834 -11.9216 -11.7772
   -10.5567 -10.2895 -10.2361 -10.0625  -9.9036  -9.8889  -9.8623  -9.8347
    -9.8337  -9.7998  -9.7686  -9.7046  -9.6841  -9.6817  -9.6014  -9.5901
    -9.2713  -9.1816  -9.1499  -9.0724  -9.0164  -8.8604  -8.8178  -8.6571
    -8.2567  -8.2179  -8.1760  -8.1100  -7.9416  -7.9023  -7.8337  -7.7967
    -7.7401  -7.6490  -7.6225  -7.6160  -7.2418  -7.2212  -7.0758  -7.0319
    -7.0017  -6.9303  -6.9123  -6.8528  -6.6795  -6.6160  -6.5760  -6.5254
    -6.5183  -6.4622  -6.3615  -6.3166  -6.1866  -6.1198  -6.0713  -5.9383
    -5.8079  -5.8026  -5.7914  -5.7033  -5.6565  -5.5673  -5.5442  -5.4769
    -5.4256  -5.4140  -5.4131  -5.3287  -5.3067  -5.2908  -5.2518  -5.1954
    -5.1646  -5.1310  -5.1303  -5.1078  -4.9724  -4.9681  -4.9122  -4.9090
    -4.8703  -4.7493  -4.7019  -4.6947  -4.4715  -4.4665  -4.4581  -4.3558
    -4.3218  -4.3111  -4.2954  -4.2859  -4.2340  -4.2142  -4.1914  -4.1709
    -4.1368  -4.1336  -4.1096  -4.1019  -4.0785  -4.0671  -4.0258  -4.0256
    -3.9936  -3.9933  -3.9820  -3.9725  -3.9200  -3.9014  -3.8474  -3.8461
    -3.7629  -3.7270  -3.7233  -3.6836  -3.5332  -3.4778  -3.4443  -3.4335
    -3.4234  -3.3638  -3.3442  -3.3144  -3.3138  -3.2674  -3.2186  -3.1907
    -3.1821  -3.1797  -3.1416  -3.0763  -2.9564  -2.8810  -2.8703  -2.8510
    -2.8495  -2.7518  -2.6043  -2.5555  -0.4064  -0.3814  -0.2664  -0.2250
     0.3304   0.4969   0.5214   0.5566   0.5757   0.8122   0.8393   0.9411
     0.9455   0.9936   1.0016   1.0308   1.0655   1.1205   1.1525   1.3035
     1.3924   1.5035   1.5257   1.5972   1.7893   1.9723   1.9941   2.0173
     2.2462   2.2485   2.2623   2.2638   2.4544   2.6032   2.6318   2.6514
     2.6666   2.7758   2.8619   3.0145   3.0587   3.0889   3.2110   3.2366
     3.2511   3.3458   3.4119   3.4312   3.4616   3.4937   3.6886   3.7304
     3.7488   3.7958   3.8784   3.9072   3.9086   3.9455   4.0258   4.0566
     4.2356   4.2644   4.2722   4.3132   4.3581   4.3940   4.4522   4.5130
     4.5225   4.5922   4.5981   4.6045   4.7091   4.7125   4.7209   4.8114
     4.8276   4.9098   4.9148   4.9454

          k = 0.2500-0.1443-0.2308 ( 96098 PWs)   bands (ev):

  -113.6384-113.6383-113.6376-113.6376 -71.1136 -71.1133 -71.1127 -71.1126
   -71.1093 -71.1087 -71.1082 -71.1080 -70.9373 -70.9373 -70.9368 -70.9367
   -22.1593 -22.0835 -22.0283 -22.0205 -21.8330 -21.8278 -21.6791 -21.6591
   -21.6353 -21.6216 -21.5175 -21.5123 -21.3642 -21.3288 -21.3232 -21.2131
   -18.1882 -18.0720 -18.0464 -18.0460 -17.2322 -17.2299 -17.2284 -17.2026
   -16.8018 -16.7803 -16.7790 -16.7712 -16.7605 -16.5697 -16.5384 -16.5365
   -16.5156 -16.5139 -16.5137 -16.5134 -16.5132 -16.5051 -16.5018 -16.5008
   -16.4827 -16.4364 -16.3980 -16.3966 -15.6844 -15.6837 -15.6243 -15.3200
   -15.3104 -15.2423 -15.1989 -15.1270 -14.9649 -14.9590 -14.9073 -14.6456
   -14.6434 -14.6134 -14.5769 -14.5277 -12.3925 -11.9403 -11.8387 -11.8324
   -10.6316 -10.2532 -10.1454 -10.1447  -9.9050  -9.8803  -9.8774  -9.8461
    -9.8383  -9.7878  -9.7408  -9.6967  -9.6870  -9.6846  -9.6167  -9.5950
    -9.2681  -9.1837  -9.1617  -9.0636  -9.0547  -8.8526  -8.7667  -8.7644
    -8.2027  -8.1632  -8.1212  -8.1181  -7.9586  -7.8804  -7.8208  -7.8099
    -7.6269  -7.6140  -7.5596  -7.5443  -7.3437  -7.2663  -6.9949  -6.9525
    -6.9423  -6.9414  -6.8966  -6.8830  -6.6955  -6.6543  -6.6475  -6.6053
    -6.5824  -6.5743  -6.3595  -6.3156  -6.1956  -6.1578  -6.0061  -5.9053
    -5.8743  -5.8598  -5.8542  -5.6869  -5.6709  -5.6128  -5.5396  -5.4824
    -5.4731  -5.4665  -5.3351  -5.3324  -5.3102  -5.2834  -5.2754  -5.2004
    -5.1335  -5.1281  -5.1257  -5.1088  -4.9538  -4.9380  -4.9141  -4.8728
    -4.8643  -4.6960  -4.6668  -4.6290  -4.4935  -4.4863  -4.4776  -4.3325
    -4.3278  -4.3088  -4.2977  -4.2939  -4.2565  -4.2445  -4.1767  -4.1649
    -4.1610  -4.1500  -4.1214  -4.1042  -4.0979  -4.0731  -4.0602  -4.0568
    -4.0330  -4.0125  -3.9906  -3.9586  -3.9240  -3.8923  -3.8613  -3.8448
    -3.7362  -3.7337  -3.7223  -3.5642  -3.5497  -3.5199  -3.5019  -3.4294
    -3.3824  -3.3444  -3.3212  -3.3124  -3.2929  -3.2706  -3.2616  -3.2190
    -3.1703  -3.1555  -3.1492  -3.1258  -2.9034  -2.8906  -2.8336  -2.8227
    -2.6725  -2.6611  -2.6492  -2.5322  -0.5218  -0.3315  -0.3217  -0.2113
     0.4102   0.4796   0.4870   0.6115   0.6794   0.7032   0.8373   0.8426
     0.8575   0.9676   1.0046   1.0250   1.0717   1.1073   1.1227   1.3876
     1.4502   1.4732   1.5376   1.5932   1.8443   1.8531   1.9385   1.9532
     2.2538   2.2693   2.3194   2.3299   2.4060   2.6096   2.6779   2.7232
     2.7474   2.9126   2.9358   3.0395   3.0698   3.1130   3.1299   3.1769
     3.1904   3.3451   3.3578   3.3605   3.4173   3.4380   3.6323   3.6445
     3.6757   3.8880   3.9687   3.9714   3.9743   3.9900   4.0899   4.1599
     4.1842   4.2328   4.2422   4.2911   4.3587   4.4212   4.4273   4.4301
     4.4432   4.5160   4.5855   4.5912   4.6085   4.6899   4.6969   4.7546
     4.7722   4.9110   4.9239   4.9690

          k = 0.4167 0.7217-0.2308 ( 96084 PWs)   bands (ev):

  -113.6384-113.6383-113.6376-113.6376 -71.1136 -71.1133 -71.1127 -71.1126
   -71.1093 -71.1087 -71.1082 -71.1080 -70.9373 -70.9373 -70.9368 -70.9367
   -22.1220 -22.1184 -22.0567 -22.0126 -21.8238 -21.8050 -21.6728 -21.6713
   -21.6101 -21.6005 -21.5675 -21.5484 -21.3614 -21.3077 -21.2707 -21.2578
   -18.1266 -18.1262 -18.0751 -18.0304 -17.2258 -17.2223 -17.2214 -17.2189
   -16.8081 -16.7937 -16.7934 -16.7925 -16.6441 -16.6436 -16.5605 -16.5170
   -16.5135 -16.5133 -16.5130 -16.5129 -16.5112 -16.5106 -16.5047 -16.5008
   -16.4702 -16.4698 -16.4354 -16.3486 -15.6716 -15.5664 -15.4305 -15.4218
   -15.4201 -15.3081 -15.2078 -15.2026 -14.9677 -14.8769 -14.7545 -14.7500
   -14.6905 -14.6272 -14.5779 -14.5749 -12.1334 -12.1312 -11.9300 -11.7582
   -10.4267 -10.4259 -10.2368 -10.0358  -9.8818  -9.8777  -9.8564  -9.8424
    -9.8162  -9.8108  -9.7625  -9.7077  -9.6744  -9.6690  -9.6559  -9.6346
    -9.2276  -9.1727  -9.1324  -9.1078  -8.9412  -8.9394  -8.8036  -8.5941
    -8.2649  -8.2539  -8.2401  -8.1345  -7.9479  -7.8300  -7.8267  -7.8138
    -7.7820  -7.7266  -7.6648  -7.6644  -7.1465  -7.1381  -7.0954  -7.0766
    -7.0744  -7.0273  -6.9071  -6.8133  -6.7004  -6.5926  -6.5447  -6.5161
    -6.4163  -6.3970  -6.3779  -6.3060  -6.1881  -6.0649  -6.0319  -6.0242
    -5.7918  -5.7467  -5.7129  -5.6577  -5.6473  -5.6386  -5.5336  -5.4971
    -5.4807  -5.4197  -5.3560  -5.3226  -5.3121  -5.2817  -5.2206  -5.2050
    -5.1938  -5.1324  -5.1309  -5.0908  -5.0025  -4.9749  -4.9181  -4.8626
    -4.8451  -4.8067  -4.7741  -4.7523  -4.4675  -4.4365  -4.4042  -4.3953
    -4.3124  -4.3067  -4.3019  -4.3005  -4.1969  -4.1787  -4.1690  -4.1596
    -4.1345  -4.1319  -4.1206  -4.1088  -4.0499  -4.0481  -4.0374  -4.0134
    -3.9853  -3.9752  -3.9741  -3.9636  -3.8993  -3.8942  -3.8792  -3.8593
    -3.7978  -3.7891  -3.7749  -3.7304  -3.4808  -3.4572  -3.4562  -3.4270
    -3.3805  -3.3616  -3.3449  -3.3102  -3.3052  -3.3033  -3.2740  -3.1829
    -3.1353  -3.1339  -3.0958  -3.0870  -3.0177  -2.9941  -2.9086  -2.8731
    -2.7624  -2.7560  -2.7250  -2.5263  -0.4183  -0.2908  -0.2569  -0.2539
     0.2691   0.4853   0.5051   0.5496   0.5550   0.8299   0.8529   0.9505
     0.9757   1.0084   1.0321   1.0608   1.0954   1.1226   1.2153   1.2715
     1.3605   1.4778   1.5127   1.5908   1.7507   2.0312   2.0776   2.0883
     2.2433   2.2466   2.2608   2.2728   2.4995   2.5249   2.5353   2.5593
     2.6374   2.6714   2.8359   3.0663   3.1271   3.1422   3.2134   3.3185
     3.3243   3.3656   3.3667   3.3806   3.5535   3.5623   3.6520   3.6697
     3.6728   3.7136   3.8372   3.8742   3.8972   4.0210   4.1219   4.1454
     4.1669   4.1997   4.2500   4.2788   4.3581   4.3720   4.4505   4.4895
     4.5355   4.5740   4.6689   4.6709   4.6972   4.7794   4.8132   4.8187
     4.8476   4.9375   4.9454   4.9470

          k = 0.4167-0.2406-0.2308 ( 96042 PWs)   bands (ev):

  -113.6384-113.6383-113.6376-113.6376 -71.1136 -71.1133 -71.1127 -71.1126
   -71.1093 -71.1087 -71.1082 -71.1080 -70.9373 -70.9373 -70.9368 -70.9367
   -22.1382 -22.1108 -22.0272 -22.0243 -21.8286 -21.8264 -21.6649 -21.6600
   -21.6082 -21.5956 -21.5675 -21.5545 -21.3462 -21.3322 -21.2809 -21.2412
   -18.1529 -18.1104 -18.0471 -18.0467 -17.2261 -17.2246 -17.2237 -17.2156
   -16.7970 -16.7964 -16.7952 -16.7844 -16.6935 -16.6214 -16.5315 -16.5307
   -16.5139 -16.5132 -16.5131 -16.5129 -16.5126 -16.5094 -16.5022 -16.5018
   -16.4770 -16.4637 -16.3908 -16.3905 -15.6473 -15.6451 -15.4879 -15.3683
   -15.3623 -15.3330 -15.2097 -15.1668 -14.9436 -14.9397 -14.7970 -14.6782
   -14.6608 -14.6592 -14.5878 -14.5562 -12.2393 -12.0746 -11.8263 -11.8239
   -10.5161 -10.3773 -10.1219 -10.1214  -9.8828  -9.8668  -9.8585  -9.8542
    -9.8395  -9.7899  -9.7448  -9.7077  -9.6818  -9.6669  -9.6545  -9.6414
    -9.2245  -9.1875  -9.1370  -9.0919  -8.9949  -8.9165  -8.7077  -8.7066
    -8.2425  -8.2199  -8.2041  -8.1938  -7.8761  -7.8711  -7.8259  -7.8195
    -7.7493  -7.7265  -7.6238  -7.6204  -7.1971  -7.1945  -7.1013  -7.0248
    -6.9731  -6.9692  -6.9287  -6.9098  -6.6633  -6.6491  -6.5743  -6.5521
    -6.4324  -6.4285  -6.3325  -6.3193  -6.1312  -6.0982  -6.0799  -5.9910
    -5.8193  -5.8073  -5.7137  -5.6935  -5.6797  -5.5743  -5.5412  -5.4652
    -5.4643  -5.4383  -5.3766  -5.3254  -5.3020  -5.2957  -5.2314  -5.2027
    -5.1680  -5.1510  -5.1239  -5.1231  -5.0037  -4.9620  -4.9043  -4.8578
    -4.8470  -4.7533  -4.7489  -4.7076  -4.4678  -4.4613  -4.4496  -4.3784
    -4.3186  -4.3081  -4.3067  -4.3008  -4.2054  -4.1840  -4.1635  -4.1608
    -4.1488  -4.1324  -4.1175  -4.1105  -4.0627  -4.0423  -4.0382  -4.0188
    -3.9983  -3.9932  -3.9865  -3.9690  -3.9031  -3.8828  -3.8742  -3.8712
    -3.7792  -3.7447  -3.7421  -3.7367  -3.4854  -3.4593  -3.4337  -3.4313
    -3.3952  -3.3561  -3.3275  -3.3211  -3.3061  -3.2761  -3.2608  -3.2434
    -3.1628  -3.1465  -3.1179  -3.0762  -2.9766  -2.9208  -2.8929  -2.8696
    -2.8301  -2.6775  -2.6445  -2.6353  -0.3583  -0.3558  -0.3180  -0.2112
     0.3917   0.3955   0.5305   0.5917   0.6497   0.6717   0.8746   0.9001
     0.9767   0.9971   1.0193   1.0367   1.0989   1.1293   1.2626   1.3584
     1.3785   1.3855   1.5369   1.5638   1.8615   1.8712   2.0085   2.0388
     2.2356   2.2498   2.2577   2.2763   2.4709   2.5618   2.5654   2.5909
     2.6261   2.7301   3.0811   3.0896   3.0910   3.1210   3.1212   3.1797
     3.2590   3.3528   3.3621   3.3757   3.4572   3.5489   3.6296   3.6403
     3.6547   3.7412   3.9001   4.0044   4.0469   4.0484   4.0900   4.2151
     4.2320   4.2380   4.2693   4.2920   4.2943   4.3277   4.4431   4.4518
     4.5126   4.5894   4.6001   4.6004   4.6931   4.7004   4.8001   4.8016
     4.8142   4.9421   4.9648   5.0015

          k =-0.0833 0.1443 0.2308 ( 95992 PWs)   bands (ev):

  -113.6384-113.6383-113.6376-113.6376 -71.1136 -71.1133 -71.1127 -71.1126
   -71.1093 -71.1087 -71.1082 -71.1079 -70.9373 -70.9373 -70.9368 -70.9367
   -22.1673 -22.0682 -22.0270 -22.0257 -21.8340 -21.8241 -21.6924 -21.6620
   -21.6419 -21.6269 -21.4981 -21.4876 -21.3656 -21.3608 -21.3221 -21.2029
   -18.2028 -18.0522 -18.0515 -18.0429 -17.2338 -17.2332 -17.2323 -17.1954
   -16.8056 -16.7887 -16.7687 -16.7658 -16.7633 -16.5513 -16.5484 -16.5387
   -16.5162 -16.5142 -16.5141 -16.5140 -16.5134 -16.5025 -16.5020 -16.5000
   -16.4843 -16.4121 -16.4114 -16.3978 -15.7103 -15.6932 -15.6913 -15.2902
   -15.2724 -15.2599 -15.1381 -15.1127 -14.9821 -14.9673 -14.9608 -14.6384
   -14.6279 -14.6268 -14.5337 -14.5142 -12.4616 -11.8736 -11.8612 -11.8360
   -10.6797 -10.1876 -10.1863 -10.1482  -9.9180  -9.8946  -9.8914  -9.8395
    -9.8258  -9.8141  -9.7187  -9.6974  -9.6946  -9.6835  -9.5930  -9.5441
    -9.3051  -9.2158  -9.1460  -9.0874  -9.0427  -8.8187  -8.8169  -8.7919
    -8.1515  -8.1243  -8.1084  -8.0574  -8.0083  -7.8228  -7.8212  -7.7987
    -7.5718  -7.5383  -7.5322  -7.4795  -7.4089  -7.2920  -6.9419  -6.9315
    -6.9188  -6.9015  -6.8883  -6.8710  -6.7176  -6.7165  -6.6870  -6.6713
    -6.6615  -6.6495  -6.3839  -6.3286  -6.2493  -6.1481  -5.9690  -5.9187
    -5.9094  -5.9078  -5.8530  -5.6775  -5.6603  -5.6459  -5.5613  -5.5330
    -5.4762  -5.4724  -5.3283  -5.3142  -5.2962  -5.2959  -5.2628  -5.2262
    -5.1234  -5.1182  -5.1083  -5.1049  -4.9279  -4.9190  -4.9066  -4.8758
    -4.8674  -4.6569  -4.6209  -4.6178  -4.4942  -4.4827  -4.4714  -4.3321
    -4.3189  -4.3104  -4.2909  -4.2748  -4.2688  -4.2680  -4.1974  -4.1959
    -4.1719  -4.1582  -4.1391  -4.1292  -4.1010  -4.0986  -4.0849  -4.0735
    -4.0471  -4.0389  -3.9806  -3.9354  -3.9339  -3.8991  -3.8516  -3.8275
    -3.7475  -3.7396  -3.7388  -3.5857  -3.5577  -3.5422  -3.4799  -3.4324
    -3.3782  -3.3384  -3.3214  -3.3089  -3.2837  -3.2570  -3.2530  -3.2038
    -3.1828  -3.1785  -3.1279  -3.0705  -2.8916  -2.8621  -2.8315  -2.7132
    -2.7025  -2.6481  -2.5241  -2.4753  -0.6595  -0.3293  -0.2696  -0.2610
     0.3224   0.5171   0.5845   0.5981   0.6491   0.6835   0.7122   0.8424
     0.8789   0.8983   1.0323   1.0694   1.0794   1.0818   1.0950   1.3748
     1.5149   1.5153   1.5502   1.5902   1.8516   1.8586   1.8963   1.9118
     2.2860   2.3450   2.3537   2.3570   2.3934   2.5932   2.7095   2.7135
     2.7214   2.9812   3.0423   3.0525   3.0630   3.0886   3.1563   3.1854
     3.2479   3.2983   3.3233   3.3653   3.4087   3.4415   3.5889   3.6308
     3.6563   3.7435   3.8512   3.9030   3.9331   4.0955   4.1384   4.1495
     4.2412   4.2636   4.2897   4.2999   4.3586   4.3939   4.3962   4.4082
     4.4562   4.5258   4.5332   4.5881   4.5944   4.6138   4.6582   4.7325
     4.7745   4.8181   4.8535   4.9218

          k = 0.1667 0.0000-0.2308 ( 95992 PWs)   bands (ev):

  -113.6384-113.6383-113.6376-113.6376 -71.1136 -71.1133 -71.1127 -71.1126
   -71.1093 -71.1087 -71.1082 -71.1079 -70.9373 -70.9373 -70.9368 -70.9367
   -22.1678 -22.0671 -22.0357 -22.0160 -21.8295 -21.8285 -21.6939 -21.6611
   -21.6495 -21.6341 -21.4794 -21.4720 -21.3853 -21.3714 -21.3138 -21.2015
   -18.2029 -18.0521 -18.0515 -18.0429 -17.2343 -17.2336 -17.2311 -17.1955
   -16.8033 -16.7909 -16.7680 -16.7655 -16.7645 -16.5492 -16.5488 -16.5401
   -16.5163 -16.5141 -16.5141 -16.5139 -16.5134 -16.5025 -16.5012 -16.5008
   -16.4843 -16.4137 -16.4120 -16.3951 -15.7141 -15.6913 -15.6903 -15.2940
   -15.2652 -15.2635 -15.1403 -15.1102 -14.9818 -14.9639 -14.9637 -14.6385
   -14.6279 -14.6270 -14.5317 -14.5159 -12.4621 -11.8732 -11.8692 -11.8281
   -10.6797 -10.1869 -10.1865 -10.1487  -9.9138  -9.8907  -9.8846  -9.8464
    -9.8310  -9.8017  -9.7111  -9.6972  -9.6940  -9.6849  -9.6127  -9.5680
    -9.2830  -9.2065  -9.1535  -9.0877  -9.0455  -8.8220  -8.8190  -8.7856
    -8.1464  -8.1379  -8.0983  -8.0706  -7.9953  -7.8428  -7.8142  -7.7880
    -7.5542  -7.5522  -7.5365  -7.4859  -7.4015  -7.2932  -6.9695  -6.9363
    -6.9244  -6.8876  -6.8715  -6.8461  -6.7394  -6.7092  -6.6851  -6.6788
    -6.6724  -6.6280  -6.4042  -6.3160  -6.2356  -6.1788  -5.9382  -5.9162
    -5.9024  -5.9004  -5.8594  -5.6712  -5.6701  -5.6598  -5.5633  -5.5483
    -5.4934  -5.4568  -5.3188  -5.3133  -5.2979  -5.2893  -5.2665  -5.2274
    -5.1222  -5.1132  -5.1104  -5.1051  -4.9378  -4.8987  -4.8951  -4.8883
    -4.8658  -4.6506  -4.6452  -4.6067  -4.4904  -4.4824  -4.4821  -4.3323
    -4.3184  -4.3067  -4.2934  -4.2816  -4.2798  -4.2479  -4.1951  -4.1717
    -4.1668  -4.1641  -4.1385  -4.1253  -4.1132  -4.0971  -4.0890  -4.0805
    -4.0513  -4.0332  -3.9868  -3.9382  -3.9318  -3.8939  -3.8627  -3.8338
    -3.7466  -3.7416  -3.7361  -3.5847  -3.5551  -3.5446  -3.4820  -3.4145
    -3.3940  -3.3303  -3.3244  -3.3138  -3.2776  -3.2633  -3.2622  -3.2025
    -3.1837  -3.1708  -3.1253  -3.0733  -2.8795  -2.8648  -2.8355  -2.7121
    -2.7099  -2.6430  -2.5390  -2.4610  -0.6591  -0.3128  -0.2830  -0.2612
     0.3188   0.5252   0.5847   0.5911   0.6510   0.6908   0.7045   0.8499
     0.8800   0.8898   1.0416   1.0669   1.0702   1.0860   1.0946   1.3727
     1.5004   1.5361   1.5420   1.5865   1.8217   1.8802   1.9019   1.9136
     2.3010   2.3377   2.3409   2.3645   2.3877   2.5987   2.7072   2.7086
     2.7417   2.9680   3.0367   3.0507   3.0765   3.1024   3.1770   3.2124
     3.2379   3.2995   3.3441   3.3676   3.3704   3.4305   3.5491   3.6020
     3.6027   3.8263   3.8378   3.9346   3.9359   4.1101   4.1383   4.1483
     4.2530   4.2674   4.2926   4.3022   4.3380   4.3632   4.3946   4.4184
     4.4467   4.4992   4.5642   4.5770   4.5773   4.6109   4.6993   4.7229
     4.7688   4.8020   4.8857   4.9161

          k =-0.0833 0.3368 0.2308 ( 96032 PWs)   bands (ev):

  -113.6384-113.6383-113.6376-113.6376 -71.1136 -71.1133 -71.1127 -71.1126
   -71.1093 -71.1087 -71.1082 -71.1080 -70.9373 -70.9373 -70.9368 -70.9367
   -22.1501 -22.0716 -22.0598 -22.0318 -21.8107 -21.7932 -21.6982 -21.6820
   -21.6179 -21.6116 -21.5400 -21.5347 -21.3323 -21.3281 -21.3209 -21.2234
   -18.1787 -18.0791 -18.0573 -18.0390 -17.2298 -17.2292 -17.2266 -17.2061
   -16.8025 -16.7897 -16.7842 -16.7747 -16.7400 -16.5786 -16.5441 -16.5272
   -16.5152 -16.5134 -16.5134 -16.5133 -16.5130 -16.5052 -16.5039 -16.5007
   -16.4815 -16.4429 -16.4141 -16.3801 -15.6851 -15.6474 -15.5942 -15.3542
   -15.2934 -15.2520 -15.2298 -15.1452 -14.9696 -14.9405 -14.8795 -14.6604
   -14.6330 -14.6104 -14.6064 -14.5333 -12.3477 -11.9542 -11.8795 -11.8069
   -10.6013 -10.2765 -10.1820 -10.1017  -9.9157  -9.8991  -9.8808  -9.8285
    -9.8264  -9.8195  -9.7426  -9.7127  -9.6920  -9.6827  -9.5732  -9.5403
    -9.2971  -9.2242  -9.1314  -9.0613  -9.0414  -8.8585  -8.7854  -8.7179
    -8.2214  -8.2033  -8.1335  -8.1133  -7.9443  -7.9092  -7.8279  -7.8059
    -7.6778  -7.6244  -7.5877  -7.5765  -7.3041  -7.2483  -7.0185  -7.0164
    -6.9437  -6.9243  -6.9222  -6.8818  -6.6543  -6.6076  -6.6023  -6.5918
    -6.5225  -6.5190  -6.3802  -6.3575  -6.2644  -6.0766  -6.0713  -5.8932
    -5.8699  -5.8349  -5.8071  -5.6927  -5.6277  -5.6178  -5.5301  -5.4848
    -5.4656  -5.4222  -5.3704  -5.3426  -5.2856  -5.2812  -5.2670  -5.2054
    -5.1445  -5.1334  -5.1327  -5.1182  -4.9471  -4.9399  -4.9182  -4.9069
    -4.8933  -4.7182  -4.6795  -4.6507  -4.4782  -4.4765  -4.4748  -4.3483
    -4.3275  -4.3136  -4.2933  -4.2862  -4.2614  -4.2359  -4.2027  -4.1649
    -4.1482  -4.1366  -4.1083  -4.1013  -4.0917  -4.0902  -4.0451  -4.0246
    -4.0149  -4.0002  -3.9712  -3.9516  -3.9299  -3.9078  -3.8381  -3.8262
    -3.7477  -3.7257  -3.7211  -3.6058  -3.5406  -3.5174  -3.4677  -3.4409
    -3.4024  -3.3505  -3.3215  -3.3059  -3.2974  -3.2725  -3.2451  -3.2440
    -3.1551  -3.1510  -3.1501  -3.1114  -2.9581  -2.8706  -2.8644  -2.8161
    -2.7418  -2.7247  -2.6016  -2.5701  -0.4533  -0.3765  -0.2861  -0.2162
     0.3944   0.4613   0.5129   0.5999   0.6127   0.8008   0.8094   0.8686
     0.9096   1.0068   1.0094   1.0300   1.0717   1.0911   1.1081   1.4048
     1.4092   1.4393   1.5600   1.5798   1.8376   1.9043   1.9560   1.9739
     2.2175   2.2656   2.2938   2.2983   2.4356   2.5894   2.6641   2.6823
     2.7133   2.8403   2.9596   3.0022   3.0296   3.0535   3.1406   3.1930
     3.2226   3.3740   3.3792   3.4474   3.4615   3.4665   3.6082   3.6442
     3.7488   3.8565   3.9665   3.9686   3.9770   3.9916   4.0720   4.1068
     4.2191   4.2461   4.2532   4.2983   4.3286   4.3703   4.4295   4.4452
     4.4797   4.5601   4.5973   4.6140   4.6528   4.6734   4.7187   4.8132
     4.8145   4.8719   4.9345   4.9563

          k =-0.2500 0.2406-0.2308 ( 96032 PWs)   bands (ev):

  -113.6384-113.6383-113.6376-113.6376 -71.1136 -71.1133 -71.1127 -71.1126
   -71.1093 -71.1087 -71.1082 -71.1080 -70.9373 -70.9373 -70.9368 -70.9367
   -22.1530 -22.0898 -22.0337 -22.0215 -21.8327 -21.8195 -21.6762 -21.6625
   -21.6215 -21.6085 -21.5410 -21.5359 -21.3437 -21.3327 -21.3123 -21.2219
   -18.1788 -18.0796 -18.0569 -18.0389 -17.2308 -17.2284 -17.2264 -17.2064
   -16.8013 -16.7897 -16.7813 -16.7764 -16.7412 -16.5767 -16.5474 -16.5272
   -16.5151 -16.5138 -16.5136 -16.5133 -16.5131 -16.5061 -16.5028 -16.5004
   -16.4814 -16.4433 -16.4137 -16.3792 -15.6889 -15.6458 -15.5948 -15.3500
   -15.3098 -15.2388 -15.2332 -15.1404 -14.9723 -14.9287 -14.8864 -14.6597
   -14.6374 -14.6085 -14.6047 -14.5351 -12.3495 -11.9649 -11.8691 -11.8056
   -10.6010 -10.2751 -10.1833 -10.1017  -9.9045  -9.8842  -9.8712  -9.8404
    -9.8369  -9.7925  -9.7556  -9.6988  -9.6856  -9.6831  -9.6087  -9.5925
    -9.2715  -9.1813  -9.1574  -9.0642  -9.0420  -8.8601  -8.7863  -8.7149
    -8.2301  -8.1727  -8.1422  -8.1414  -7.9372  -7.8721  -7.8557  -7.8047
    -7.6792  -7.6297  -7.5823  -7.5758  -7.3031  -7.2478  -7.0270  -7.0013
    -6.9414  -6.9215  -6.9198  -6.8909  -6.6709  -6.6561  -6.6099  -6.5686
    -6.5546  -6.5207  -6.3341  -6.3315  -6.1931  -6.1190  -6.0616  -5.9203
    -5.8395  -5.8388  -5.8314  -5.6880  -5.6773  -5.5833  -5.5350  -5.4749
    -5.4526  -5.4478  -5.3662  -5.3258  -5.3189  -5.2854  -5.2639  -5.1952
    -5.1492  -5.1310  -5.1293  -5.1085  -4.9716  -4.9464  -4.9247  -4.8861
    -4.8557  -4.7226  -4.6690  -4.6604  -4.4885  -4.4778  -4.4731  -4.3441
    -4.3255  -4.3104  -4.2945  -4.2911  -4.2412  -4.2337  -4.1807  -4.1749
    -4.1502  -4.1426  -4.1161  -4.1029  -4.0911  -4.0622  -4.0477  -4.0402
    -4.0164  -4.0033  -3.9871  -3.9660  -3.9222  -3.8963  -3.8543  -3.8453
    -3.7485  -3.7240  -3.7208  -3.6061  -3.5487  -3.4910  -3.4855  -3.4324
    -3.4047  -3.3354  -3.3323  -3.3210  -3.3085  -3.2695  -3.2342  -3.2180
    -3.1866  -3.1542  -3.1470  -3.1074  -2.9253  -2.8934  -2.8493  -2.8432
    -2.7514  -2.7032  -2.6047  -2.5642  -0.4550  -0.3738  -0.2933  -0.2102
     0.4069   0.4541   0.5001   0.6046   0.6327   0.7503   0.8281   0.8866
     0.9008   0.9873   0.9907   1.0330   1.0522   1.1192   1.1489   1.3806
     1.3895   1.5012   1.5175   1.5995   1.8242   1.8968   1.9538   1.9798
     2.2475   2.2580   2.2859   2.2965   2.4345   2.6069   2.6638   2.6781
     2.7216   2.8370   2.9751   2.9914   3.0447   3.0797   3.1685   3.1953
     3.2305   3.3351   3.3721   3.4177   3.4216   3.4477   3.6854   3.6871
     3.7078   3.8400   3.9254   3.9429   3.9723   3.9767   4.0518   4.1426
     4.2032   4.2107   4.2760   4.2767   4.4022   4.4176   4.4291   4.4755
     4.4847   4.5287   4.5759   4.5776   4.6769   4.7128   4.7362   4.7597
     4.7800   4.9218   4.9572   4.9745

          k = 0.3333 0.0962-0.2308 ( 96032 PWs)   bands (ev):

  -113.6384-113.6383-113.6376-113.6376 -71.1136 -71.1133 -71.1127 -71.1126
   -71.1093 -71.1087 -71.1082 -71.1079 -70.9373 -70.9373 -70.9368 -70.9367
   -22.1525 -22.0673 -22.0667 -22.0212 -21.8071 -21.7956 -21.6989 -21.6789
   -21.6539 -21.6500 -21.4789 -21.4729 -21.3924 -21.3637 -21.2903 -21.2163
   -18.1787 -18.0791 -18.0574 -18.0391 -17.2311 -17.2287 -17.2249 -17.2068
   -16.8001 -16.7902 -16.7838 -16.7755 -16.7421 -16.5770 -16.5450 -16.5275
   -16.5157 -16.5140 -16.5131 -16.5128 -16.5127 -16.5042 -16.5041 -16.5018
   -16.4816 -16.4444 -16.4137 -16.3770 -15.6918 -15.6445 -15.5944 -15.3518
   -15.3028 -15.2444 -15.2310 -15.1428 -14.9728 -14.9320 -14.8829 -14.6595
   -14.6366 -14.6090 -14.6032 -14.5356 -12.3499 -11.9607 -11.8778 -11.8009
   -10.6009 -10.2757 -10.1824 -10.1018  -9.8976  -9.8693  -9.8615  -9.8601
    -9.8431  -9.7667  -9.7299  -9.7194  -9.6878  -9.6783  -9.6494  -9.6184
    -9.2180  -9.1844  -9.1679  -9.0756  -9.0437  -8.8627  -8.7862  -8.7085
    -8.2235  -8.1855  -8.1482  -8.1438  -7.9302  -7.8811  -7.8499  -7.7983
    -7.6673  -7.6286  -7.5973  -7.5825  -7.2960  -7.2546  -7.0564  -7.0104
    -6.9493  -6.9193  -6.9095  -6.8487  -6.6746  -6.6024  -6.5738  -6.5570
    -6.5506  -6.5205  -6.4331  -6.3341  -6.2216  -6.2109  -5.9141  -5.8886
    -5.8470  -5.8303  -5.8280  -5.6889  -5.6862  -5.6094  -5.5430  -5.5411
    -5.5067  -5.3936  -5.3542  -5.3051  -5.2868  -5.2791  -5.2773  -5.1828
    -5.1559  -5.1425  -5.1161  -5.1113  -4.9676  -4.9614  -4.8931  -4.8812
    -4.8711  -4.7202  -4.7002  -4.6555  -4.4922  -4.4832  -4.4755  -4.3421
    -4.3272  -4.3043  -4.3029  -4.2940  -4.2383  -4.2050  -4.1617  -4.1594
    -4.1464  -4.1428  -4.1274  -4.1197  -4.0835  -4.0739  -4.0557  -4.0545
    -4.0056  -4.0010  -3.9954  -3.9616  -3.9195  -3.8833  -3.8807  -3.8530
    -3.7396  -3.7293  -3.7247  -3.6087  -3.5228  -3.5136  -3.4844  -3.4250
    -3.4156  -3.3241  -3.3204  -3.3185  -3.3063  -3.2786  -3.2559  -3.2236
    -3.1865  -3.1543  -3.1406  -3.1066  -2.9046  -2.8774  -2.8648  -2.8475
    -2.7669  -2.7148  -2.6017  -2.5485  -0.4522  -0.3584  -0.2873  -0.2237
     0.4153   0.4454   0.4999   0.6041   0.6396   0.7502   0.8302   0.8900
     0.8962   0.9899   0.9943   1.0265   1.0703   1.1181   1.1332   1.3612
     1.3872   1.4882   1.5277   1.5778   1.8126   1.9259   1.9474   1.9855
     2.2703   2.2725   2.2740   2.2954   2.4239   2.6138   2.6433   2.6802
     2.7113   2.8203   3.0172   3.0188   3.0222   3.0910   3.1820   3.1988
     3.2397   3.3273   3.3777   3.4055   3.4335   3.4555   3.6172   3.6430
     3.6936   3.8537   3.9436   3.9864   3.9873   4.0021   4.0504   4.0854
     4.2090   4.2790   4.2902   4.2994   4.3562   4.3931   4.3971   4.4587
     4.4773   4.5322   4.6167   4.6437   4.6521   4.7107   4.7353   4.7531
     4.7637   4.8850   4.9125   4.9809

          k =-0.2500-0.2406 0.2308 ( 96032 PWs)   bands (ev):

  -113.6384-113.6383-113.6376-113.6376 -71.1136 -71.1133 -71.1127 -71.1126
   -71.1093 -71.1087 -71.1082 -71.1080 -70.9373 -70.9373 -70.9368 -70.9367
   -22.1500 -22.0727 -22.0502 -22.0432 -21.7853 -21.7805 -21.7173 -21.6938
   -21.6532 -21.6501 -21.4876 -21.4604 -21.3936 -21.3637 -21.2871 -21.2178
   -18.1787 -18.0792 -18.0571 -18.0394 -17.2313 -17.2277 -17.2258 -17.2066
   -16.8009 -16.7910 -16.7841 -16.7752 -16.7413 -16.5774 -16.5450 -16.5260
   -16.5157 -16.5138 -16.5137 -16.5127 -16.5125 -16.5044 -16.5039 -16.5022
   -16.4817 -16.4448 -16.4125 -16.3782 -15.6869 -15.6508 -15.5913 -15.3507
   -15.2999 -15.2488 -15.2290 -15.1460 -14.9721 -14.9380 -14.8789 -14.6599
   -14.6336 -14.6104 -14.6036 -14.5352 -12.3486 -11.9618 -11.8700 -11.8085
   -10.6012 -10.2757 -10.1828 -10.1015  -9.9077  -9.8828  -9.8660  -9.8510
    -9.8288  -9.7959  -9.7374  -9.7074  -9.6859  -9.6846  -9.6265  -9.5887
    -9.2299  -9.2154  -9.1461  -9.0729  -9.0433  -8.8639  -8.7807  -8.7133
    -8.2151  -8.2147  -8.1402  -8.1123  -7.9364  -7.9259  -7.8124  -7.8051
    -7.6607  -7.6317  -7.6000  -7.5837  -7.2963  -7.2556  -7.0531  -7.0132
    -6.9366  -6.9234  -6.9036  -6.8757  -6.6153  -6.6150  -6.5939  -6.5261
    -6.5233  -6.5202  -6.4605  -6.3768  -6.2876  -6.1628  -5.9208  -5.8798
    -5.8320  -5.8312  -5.8286  -5.7012  -5.6516  -5.6237  -5.5717  -5.5387
    -5.4906  -5.3813  -5.3571  -5.3091  -5.2870  -5.2691  -5.2629  -5.2042
    -5.1485  -5.1316  -5.1287  -5.1182  -4.9743  -4.9224  -4.9198  -4.8963
    -4.8820  -4.6978  -4.6876  -4.6856  -4.4858  -4.4773  -4.4757  -4.3480
    -4.3288  -4.3066  -4.3038  -4.2894  -4.2363  -4.2071  -4.1920  -4.1759
    -4.1419  -4.1319  -4.1095  -4.1082  -4.0977  -4.0797  -4.0569  -4.0529
    -4.0055  -3.9952  -3.9848  -3.9519  -3.9266  -3.8942  -3.8686  -3.8378
    -3.7463  -3.7308  -3.7180  -3.6084  -3.5184  -3.5137  -3.4879  -3.4284
    -3.3949  -3.3508  -3.3215  -3.3103  -3.2956  -3.2795  -3.2548  -3.2527
    -3.1629  -3.1562  -3.1380  -3.1078  -2.9242  -2.8851  -2.8686  -2.8233
    -2.7576  -2.7188  -2.6038  -2.5527  -0.4514  -0.3596  -0.2858  -0.2245
     0.4112   0.4545   0.5236   0.5796   0.6152   0.7855   0.8180   0.8750
     0.9223   1.0070   1.0083   1.0125   1.0765   1.1020   1.1070   1.3741
     1.3956   1.4513   1.5554   1.5623   1.8470   1.8886   1.9553   1.9837
     2.2614   2.2793   2.2819   2.3094   2.4183   2.6044   2.6069   2.6878
     2.7251   2.8304   3.0010   3.0054   3.0298   3.0559   3.1689   3.2135
     3.2153   3.3581   3.3767   3.4542   3.4769   3.5021   3.5732   3.6362
[...]
   -22.1575 -22.0616 -22.0588 -22.0278 -21.8052 -21.7991 -21.7044 -21.6790
   -21.6531 -21.6496 -21.4759 -21.4618 -21.3849 -21.3823 -21.2948 -21.2107
   -18.1881 -18.0715 -18.0468 -18.0463 -17.2327 -17.2291 -17.2280 -17.2027
   -16.8018 -16.7816 -16.7808 -16.7703 -16.7604 -16.5700 -16.5368 -16.5358
   -16.5160 -16.5139 -16.5137 -16.5132 -16.5129 -16.5033 -16.5026 -16.5024
   -16.4828 -16.4380 -16.3969 -16.3955 -15.6873 -15.6814 -15.6233 -15.3129
   -15.3126 -15.2477 -15.1944 -15.1326 -14.9657 -14.9626 -14.9043 -14.6447
   -14.6430 -14.6134 -14.5756 -14.5282 -12.3920 -11.9368 -11.8421 -11.8330
   -10.6318 -10.2538 -10.1450 -10.1445  -9.9074  -9.8795  -9.8737  -9.8527
    -9.8331  -9.7898  -9.7224  -9.7074  -9.6872  -9.6857  -9.6314  -9.5915
    -9.2416  -9.2048  -9.1544  -9.0657  -9.0588  -8.8560  -8.7652  -8.7601
    -8.1990  -8.1638  -8.1352  -8.1162  -7.9589  -7.8731  -7.8319  -7.8014
    -7.6139  -7.6120  -7.5752  -7.5518  -7.3368  -7.2708  -7.0347  -6.9532
    -6.9433  -6.9112  -6.8931  -6.8847  -6.6654  -6.6378  -6.6132  -6.5853
    -6.5721  -6.5603  -6.4367  -6.3443  -6.2598  -6.1861  -5.9086  -5.8835
    -5.8635  -5.8612  -5.8435  -5.6962  -5.6681  -5.6287  -5.5662  -5.5423
    -5.5004  -5.4062  -5.3264  -5.3023  -5.2934  -5.2932  -5.2721  -5.2036
    -5.1400  -5.1305  -5.1208  -5.1096  -4.9478  -4.9366  -4.9058  -4.8881
    -4.8766  -4.6851  -4.6694  -4.6468  -4.4945  -4.4878  -4.4809  -4.3395
    -4.3307  -4.3066  -4.3022  -4.2867  -4.2519  -4.2150  -4.1764  -4.1704
    -4.1625  -4.1534  -4.1161  -4.1109  -4.0974  -4.0777  -4.0764  -4.0660
    -4.0139  -4.0131  -3.9890  -3.9498  -3.9272  -3.8908  -3.8714  -3.8403
    -3.7407  -3.7277  -3.7231  -3.5532  -3.5350  -3.5262  -3.5197  -3.4257
    -3.3915  -3.3365  -3.3178  -3.3056  -3.2899  -3.2794  -3.2663  -3.2313
    -3.1680  -3.1538  -3.1454  -3.1264  -2.8847  -2.8788  -2.8610  -2.8198
    -2.6861  -2.6592  -2.6578  -2.5162  -0.5192  -0.3159  -0.3154  -0.2280
     0.4095   0.4819   0.4967   0.6044   0.6834   0.7041   0.8310   0.8410
     0.8644   0.9732   1.0073   1.0180   1.0827   1.1068   1.1101   1.3797
     1.4350   1.4595   1.5507   1.5796   1.8373   1.8822   1.9281   1.9542
     2.2790   2.2831   2.3105   2.3263   2.3982   2.6083   2.6462   2.7133
     2.7569   2.8649   3.0031   3.0058   3.0650   3.1340   3.1441   3.1681
     3.1991   3.3476   3.3825   3.4021   3.4208   3.4262   3.6187   3.6236
     3.6299   3.9137   3.9218   3.9649   3.9818   4.0670   4.0908   4.1542
     4.1794   4.2501   4.2673   4.2765   4.3466   4.3618   4.4110   4.4570
     4.4703   4.4729   4.6120   4.6160   4.6379   4.6684   4.6862   4.7438
     4.8114   4.9200   4.9392   4.9697

          k = 0.0000-0.2887-0.2308 ( 96098 PWs)   bands (ev):

  -113.6384-113.6383-113.6376-113.6376 -71.1136 -71.1133 -71.1127 -71.1126
   -71.1093 -71.1087 -71.1082 -71.1080 -70.9373 -70.9373 -70.9368 -70.9367
   -22.1561 -22.0621 -22.0523 -22.0394 -21.8086 -21.7963 -21.7031 -21.6811
   -21.6307 -21.6267 -21.5206 -21.5066 -21.3551 -21.3349 -21.3179 -21.2149
   -18.1881 -18.0715 -18.0467 -18.0463 -17.2311 -17.2299 -17.2294 -17.2023
   -16.8037 -16.7818 -16.7802 -16.7701 -16.7586 -16.5709 -16.5366 -16.5351
   -16.5157 -16.5138 -16.5136 -16.5135 -16.5132 -16.5045 -16.5025 -16.5011
   -16.4827 -16.4358 -16.3990 -16.3971 -15.6837 -15.6796 -15.6262 -15.3167
   -15.3057 -15.2508 -15.1922 -15.1355 -14.9689 -14.9601 -14.9054 -14.6447
   -14.6423 -14.6130 -14.5780 -14.5262 -12.3905 -11.9293 -11.8432 -11.8401
   -10.6320 -10.2544 -10.1448 -10.1442  -9.9184  -9.8982  -9.8870  -9.8327
    -9.8262  -9.8182  -9.7272  -9.7133  -9.6945  -9.6829  -9.5753  -9.5349
    -9.2970  -9.2329  -9.1324  -9.0624  -9.0522  -8.8500  -8.7698  -8.7641
    -8.1910  -8.1709  -8.1360  -8.1015  -7.9735  -7.8576  -7.8310  -7.8160
    -7.6293  -7.6075  -7.5618  -7.5459  -7.3444  -7.2667  -6.9878  -6.9609
    -6.9607  -6.9233  -6.9013  -6.9002  -6.6598  -6.6274  -6.6102  -6.5984
    -6.5781  -6.5682  -6.3893  -6.3732  -6.2869  -6.0994  -6.0193  -5.8832
    -5.8798  -5.8715  -5.8295  -5.6810  -5.6437  -5.6271  -5.5346  -5.5252
    -5.4539  -5.4472  -5.3397  -5.3347  -5.2948  -5.2814  -5.2639  -5.2125
    -5.1336  -5.1276  -5.1247  -5.1191  -4.9308  -4.9290  -4.9119  -4.9036
    -4.9019  -4.6838  -4.6659  -4.6372  -4.4927  -4.4798  -4.4786  -4.3339
    -4.3309  -4.3129  -4.2942  -4.2884  -4.2564  -4.2438  -4.2085  -4.1627
    -4.1593  -4.1540  -4.1202  -4.1025  -4.1019  -4.0926  -4.0570  -4.0409
    -4.0266  -4.0110  -3.9722  -3.9425  -3.9329  -3.9058  -3.8421  -3.8227
    -3.7395  -3.7334  -3.7185  -3.5518  -3.5434  -3.5404  -3.5025  -3.4397
    -3.3952  -3.3285  -3.3218  -3.3064  -3.2837  -3.2652  -3.2630  -3.2283
    -3.1813  -3.1502  -3.1467  -3.1233  -2.9202  -2.8625  -2.8574  -2.8135
    -2.6702  -2.6650  -2.6564  -2.5313  -0.5199  -0.3347  -0.3147  -0.2173
     0.4192   0.4637   0.4929   0.6212   0.6784   0.7177   0.8229   0.8382
     0.8556   0.9778   1.0168   1.0174   1.0791   1.0962   1.1135   1.3863
     1.4211   1.4862   1.5521   1.5867   1.8670   1.8696   1.9269   1.9485
     2.2388   2.2693   2.3245   2.3269   2.4139   2.5924   2.6885   2.6905
     2.7376   2.8887   2.9893   2.9974   3.0173   3.1105   3.1334   3.1613
     3.2195   3.3457   3.3995   3.4106   3.4161   3.4406   3.5899   3.6581
     3.7013   3.8947   3.9394   3.9616   4.0157   4.0256   4.0861   4.1591
     4.1729   4.1993   4.2389   4.3464   4.3487   4.3557   4.4390   4.4575
     4.4694   4.4845   4.5815   4.5885   4.6143   4.6582   4.6975   4.7698
     4.8386   4.9043   4.9429   4.9618

          k =-0.4167 0.7217 0.2308 ( 96084 PWs)   bands (ev):

  -113.6384-113.6383-113.6376-113.6376 -71.1136 -71.1133 -71.1127 -71.1126
   -71.1093 -71.1087 -71.1082 -71.1080 -70.9373 -70.9373 -70.9368 -70.9367
   -22.1171 -22.1084 -22.0731 -22.0275 -21.7726 -21.7506 -21.7238 -21.7147
   -21.6532 -21.6466 -21.5042 -21.4749 -21.3964 -21.3359 -21.2564 -21.2510
   -18.1264 -18.1259 -18.0754 -18.0306 -17.2250 -17.2225 -17.2219 -17.2184
   -16.8093 -16.7963 -16.7925 -16.7920 -16.6444 -16.6439 -16.5585 -16.5167
   -16.5145 -16.5143 -16.5119 -16.5117 -16.5095 -16.5090 -16.5070 -16.5021
   -16.4707 -16.4706 -16.4344 -16.3477 -15.6721 -15.5672 -15.4290 -15.4204
   -15.4173 -15.3049 -15.2108 -15.2090 -14.9696 -14.8802 -14.7513 -14.7486
   -14.6895 -14.6257 -14.5775 -14.5761 -12.1322 -12.1290 -11.9321 -11.7594
   -10.4269 -10.4265 -10.2363 -10.0357  -9.8888  -9.8724  -9.8642  -9.8383
    -9.8035  -9.8002  -9.7739  -9.7101  -9.6784  -9.6678  -9.6663  -9.6316
    -9.2078  -9.1481  -9.1436  -9.1338  -8.9426  -8.9416  -8.7992  -8.5899
    -8.2747  -8.2456  -8.2422  -8.1493  -7.9411  -7.8228  -7.8210  -7.8147
    -7.7762  -7.7281  -7.6750  -7.6722  -7.1613  -7.1562  -7.0993  -7.0748
    -7.0727  -7.0015  -6.9088  -6.8286  -6.5965  -6.5436  -6.5054  -6.4950
    -6.4761  -6.4153  -6.3970  -6.3874  -6.2739  -6.1433  -5.9482  -5.8977
    -5.7913  -5.7649  -5.6925  -5.6611  -5.6520  -5.6485  -5.5385  -5.5219
    -5.5102  -5.4787  -5.3031  -5.2997  -5.2719  -5.2479  -5.2419  -5.2249
    -5.1765  -5.1321  -5.1146  -5.1141  -5.0229  -5.0011  -4.9082  -4.8552
    -4.8105  -4.8064  -4.7923  -4.7795  -4.4700  -4.4486  -4.4064  -4.3845
    -4.3147  -4.3090  -4.3017  -4.2976  -4.1830  -4.1769  -4.1643  -4.1515
    -4.1422  -4.1353  -4.1164  -4.0969  -4.0683  -4.0573  -4.0445  -4.0237
    -3.9701  -3.9669  -3.9652  -3.9619  -3.9085  -3.8892  -3.8861  -3.8547
    -3.8008  -3.7977  -3.7718  -3.7301  -3.4681  -3.4577  -3.4551  -3.4399
    -3.3859  -3.3604  -3.3475  -3.3053  -3.3052  -3.3013  -3.2750  -3.1844
    -3.1284  -3.1242  -3.1128  -3.0755  -3.0244  -2.9912  -2.9191  -2.8806
    -2.7668  -2.7461  -2.7133  -2.5284  -0.4108  -0.2841  -0.2573  -0.2564
     0.2709   0.4862   0.5068   0.5361   0.5634   0.8414   0.8480   0.9542
     0.9897   1.0035   1.0250   1.0645   1.0974   1.1260   1.2004   1.2752
     1.3480   1.4710   1.5022   1.5670   1.7546   2.0383   2.0911   2.0934
     2.2484   2.2509   2.2611   2.2981   2.4771   2.5120   2.5381   2.5497
     2.6232   2.6754   2.8441   3.0519   3.1106   3.1327   3.2015   3.3038
     3.3469   3.3735   3.4206   3.4301   3.5514   3.5733   3.6260   3.6549
     3.6692   3.7267   3.8489   3.8628   3.8981   3.9794   4.1234   4.1363
     4.1489   4.2117   4.2274   4.2472   4.3582   4.3912   4.4616   4.5557
     4.5659   4.5739   4.6248   4.6889   4.7426   4.7667   4.8073   4.8533
     4.9118   4.9165   4.9391   4.9456

          k = 0.8333 0.0000-0.2308 ( 96084 PWs)   bands (ev):

  -113.6384-113.6383-113.6376-113.6376 -71.1136 -71.1133 -71.1127 -71.1126
   -71.1093 -71.1087 -71.1082 -71.1080 -70.9373 -70.9373 -70.9368 -70.9367
   -22.1105 -22.1056 -22.0820 -22.0333 -21.7739 -21.7513 -21.7235 -21.7181
   -21.6065 -21.5999 -21.5643 -21.5491 -21.3537 -21.2953 -21.2733 -21.2659
   -18.1262 -18.1261 -18.0754 -18.0306 -17.2265 -17.2215 -17.2210 -17.2192
   -16.8090 -16.7951 -16.7943 -16.7922 -16.6444 -16.6424 -16.5589 -16.5167
   -16.5141 -16.5132 -16.5126 -16.5119 -16.5109 -16.5095 -16.5060 -16.5015
   -16.4702 -16.4699 -16.4362 -16.3492 -15.6692 -15.5637 -15.4291 -15.4213
   -15.4179 -15.3042 -15.2149 -15.2085 -14.9700 -14.8804 -14.7548 -14.7484
   -14.6891 -14.6250 -14.5780 -14.5744 -12.1272 -12.1262 -11.9365 -11.7617
   -10.4274 -10.4270 -10.2359 -10.0356  -9.9063  -9.9047  -9.8462  -9.8422
    -9.8253  -9.8156  -9.7652  -9.7251  -9.6842  -9.6834  -9.5685  -9.5677
    -9.2676  -9.2218  -9.1076  -9.0967  -8.9398  -8.9380  -8.8048  -8.5953
    -8.2792  -8.2417  -8.2294  -8.1433  -7.9438  -7.8354  -7.8241  -7.8210
    -7.7727  -7.7279  -7.6676  -7.6668  -7.1481  -7.1432  -7.1050  -7.0761
    -7.0703  -7.0160  -6.9155  -6.8351  -6.5849  -6.5485  -6.5093  -6.5083
    -6.4764  -6.4091  -6.4082  -6.3922  -6.2356  -6.1276  -5.9933  -5.9462
    -5.8088  -5.7589  -5.6946  -5.6398  -5.6364  -5.6219  -5.5332  -5.5190
    -5.4891  -5.3899  -5.3523  -5.3236  -5.3154  -5.2782  -5.2592  -5.1845
    -5.1751  -5.1372  -5.1180  -5.1032  -5.0002  -4.9868  -4.9302  -4.8813
    -4.8425  -4.8393  -4.7605  -4.7411  -4.4693  -4.4364  -4.4104  -4.3787
    -4.3173  -4.3141  -4.2977  -4.2903  -4.2377  -4.2146  -4.1692  -4.1538
    -4.1294  -4.1167  -4.0952  -4.0928  -4.0915  -4.0741  -4.0023  -4.0010
    -3.9775  -3.9687  -3.9586  -3.9573  -3.9171  -3.9168  -3.8423  -3.8290
    -3.7999  -3.7903  -3.7743  -3.7302  -3.4776  -3.4666  -3.4524  -3.4502
    -3.3707  -3.3668  -3.3403  -3.3060  -3.3048  -3.2982  -3.2728  -3.1862
    -3.1497  -3.1347  -3.0811  -3.0648  -3.0210  -2.9790  -2.9279  -2.8871
    -2.7660  -2.7653  -2.7140  -2.5308  -0.4181  -0.2895  -0.2559  -0.2548
     0.2661   0.4676   0.5020   0.5615   0.5711   0.8342   0.8483   0.9619
     0.9857   1.0124   1.0153   1.0548   1.1044   1.1168   1.2137   1.2791
     1.3425   1.4755   1.5412   1.5678   1.7536   2.0444   2.1001   2.1137
     2.1950   2.2418   2.2514   2.2552   2.4889   2.5103   2.5687   2.5715
     2.6276   2.6695   2.8037   3.0476   3.1071   3.1150   3.2204   3.2259
     3.3722   3.3896   3.4141   3.4284   3.5585   3.5597   3.6554   3.6624
     3.6859   3.6913   3.8412   3.8935   3.9179   4.0173   4.1111   4.1174
     4.1490   4.2628   4.2681   4.2788   4.3181   4.3436   4.5080   4.5198
     4.5251   4.5506   4.6885   4.7007   4.7171   4.7345   4.8211   4.8630
     4.8956   4.9227   4.9385   4.9442

          k =-0.4167-0.2406 0.2308 ( 96042 PWs)   bands (ev):

  -113.6384-113.6383-113.6376-113.6376 -71.1136 -71.1133 -71.1127 -71.1126
   -71.1093 -71.1087 -71.1082 -71.1080 -70.9373 -70.9373 -70.9368 -70.9367
   -22.1328 -22.0989 -22.0513 -22.0404 -21.7684 -21.7543 -21.7294 -21.7116
   -21.6595 -21.6575 -21.4727 -21.4675 -21.3828 -21.3814 -21.2641 -21.2338
   -18.1527 -18.1100 -18.0474 -18.0470 -17.2265 -17.2236 -17.2231 -17.2159
   -16.7992 -16.7985 -16.7950 -16.7839 -16.6934 -16.6213 -16.5298 -16.5296
   -16.5151 -16.5143 -16.5122 -16.5118 -16.5111 -16.5076 -16.5039 -16.5038
   -16.4775 -16.4647 -16.3898 -16.3890 -15.6488 -15.6447 -15.4859 -15.3641
   -15.3617 -15.3298 -15.2153 -15.1725 -14.9459 -14.9432 -14.7943 -14.6762
   -14.6593 -14.6580 -14.5879 -14.5565 -12.2378 -12.0721 -11.8287 -11.8254
   -10.5164 -10.3778 -10.1215 -10.1211  -9.8893  -9.8695  -9.8633  -9.8463
    -9.8294  -9.7731  -9.7513  -9.7169  -9.6862  -9.6711  -9.6658  -9.6347
    -9.1854  -9.1707  -9.1671  -9.1081  -8.9964  -8.9189  -8.7046  -8.7000
    -8.2391  -8.2306  -8.2070  -8.2014  -7.8742  -7.8658  -7.8204  -7.8180
    -7.7449  -7.7249  -7.6330  -7.6322  -7.2115  -7.1889  -7.1289  -7.0208
    -6.9733  -6.9701  -6.9103  -6.9041  -6.5822  -6.5665  -6.5496  -6.5017
    -6.4710  -6.4289  -6.4276  -6.3946  -6.2446  -6.2136  -5.8943  -5.8831
    -5.8138  -5.8115  -5.7167  -5.7033  -5.6875  -5.5804  -5.5512  -5.5493
    -5.5174  -5.4350  -5.3148  -5.2872  -5.2707  -5.2559  -5.2465  -5.2129
    -5.1541  -5.1516  -5.1435  -5.1305  -5.0179  -4.9882  -4.8863  -4.8680
    -4.8350  -4.7551  -4.7419  -4.7337  -4.4749  -4.4653  -4.4505  -4.3810
    -4.3217  -4.3110  -4.3015  -4.2958  -4.1850  -4.1749  -4.1596  -4.1517
    -4.1423  -4.1412  -4.1317  -4.1087  -4.0714  -4.0491  -4.0476  -4.0421
    -3.9838  -3.9799  -3.9673  -3.9662  -3.9119  -3.8917  -3.8791  -3.8612
    -3.7859  -3.7490  -3.7382  -3.7364  -3.4685  -3.4598  -3.4449  -3.4310
    -3.4015  -3.3505  -3.3318  -3.3268  -3.3102  -3.2762  -3.2555  -3.2431
    -3.1685  -3.1385  -3.1034  -3.0743  -2.9824  -2.9284  -2.9027  -2.8890
    -2.8097  -2.6583  -2.6460  -2.6426  -0.3488  -0.3457  -0.3165  -0.2170
     0.3934   0.3994   0.5273   0.5862   0.6448   0.6748   0.8936   0.9137
     0.9813   0.9886   1.0108   1.0469   1.0954   1.1293   1.2580   1.3411
     1.3622   1.3850   1.5239   1.5370   1.8655   1.8826   2.0123   2.0479
     2.2541   2.2575   2.2608   2.2912   2.4688   2.5300   2.5675   2.5833
     2.6154   2.7209   3.0565   3.0579   3.0703   3.1219   3.1466   3.1878
     3.3048   3.3714   3.3901   3.3959   3.4609   3.5573   3.6366   3.6426
     3.6445   3.7380   3.8837   4.0153   4.0435   4.0602   4.0745   4.1508
     4.1722   4.1940   4.2227   4.3082   4.3300   4.3668   4.4470   4.4832
     4.4876   4.6409   4.6551   4.6994   4.7228   4.7452   4.7874   4.7887
     4.8314   4.9099   4.9378   4.9676

          k = 0.0000-0.4811-0.2308 ( 96042 PWs)   bands (ev):

  -113.6384-113.6383-113.6376-113.6376 -71.1136 -71.1133 -71.1127 -71.1126
   -71.1093 -71.1087 -71.1082 -71.1080 -70.9373 -70.9373 -70.9368 -70.9367
   -22.1291 -22.0924 -22.0586 -22.0507 -21.7700 -21.7554 -21.7302 -21.7147
   -21.6006 -21.5994 -21.5620 -21.5556 -21.3333 -21.3214 -21.2874 -21.2456
   -18.1527 -18.1101 -18.0472 -18.0471 -17.2253 -17.2246 -17.2245 -17.2150
   -16.7985 -16.7978 -16.7964 -16.7846 -16.6921 -16.6210 -16.5299 -16.5292
   -16.5144 -16.5135 -16.5124 -16.5123 -16.5119 -16.5087 -16.5034 -16.5027
   -16.4772 -16.4637 -16.3920 -16.3911 -15.6448 -15.6411 -15.4874 -15.3659
   -15.3590 -15.3294 -15.2177 -15.1749 -14.9476 -14.9425 -14.7965 -14.6788
   -14.6589 -14.6570 -14.5869 -14.5550 -12.2343 -12.0664 -11.8315 -11.8303
   -10.5169 -10.3785 -10.1212 -10.1209  -9.9142  -9.9070  -9.8674  -9.8450
    -9.8197  -9.8125  -9.7429  -9.7357  -9.6885  -9.6840  -9.5535  -9.5388
    -9.2764  -9.2527  -9.1089  -9.0804  -8.9937  -8.9143  -8.7107  -8.7062
    -8.2314  -8.2297  -8.2073  -8.1894  -7.8870  -7.8538  -7.8326  -7.8261
    -7.7363  -7.7347  -7.6259  -7.6229  -7.1993  -7.1979  -7.0999  -7.0253
    -6.9844  -6.9833  -6.9189  -6.9094  -6.5871  -6.5567  -6.5354  -6.5249
    -6.4613  -6.4441  -6.4238  -6.4141  -6.2388  -6.1354  -6.0063  -5.9188
    -5.8323  -5.8223  -5.6971  -5.6784  -5.6528  -5.5599  -5.5581  -5.4753
    -5.4489  -5.4457  -5.3683  -5.3247  -5.2926  -5.2807  -5.2364  -5.2304
    -5.1451  -5.1391  -5.1386  -5.1350  -4.9945  -4.9667  -4.9097  -4.8864
    -4.8774  -4.7710  -4.7250  -4.7057  -4.4676  -4.4632  -4.4435  -4.3750
    -4.3231  -4.3161  -4.2938  -4.2934  -4.2445  -4.2370  -4.1642  -4.1471
    -4.1421  -4.1183  -4.1030  -4.0983  -4.0879  -4.0812  -4.0159  -3.9953
    -3.9912  -3.9819  -3.9614  -3.9523  -3.9257  -3.9161  -3.8314  -3.8227
    -3.7787  -3.7472  -3.7398  -3.7384  -3.4829  -3.4712  -3.4522  -3.4323
    -3.4003  -3.3513  -3.3260  -3.3168  -3.2999  -3.2750  -3.2563  -3.2433
    -3.1541  -3.1500  -3.1134  -3.0587  -2.9703  -2.9480  -2.8923  -2.8863
    -2.8192  -2.6746  -2.6503  -2.6433  -0.3605  -0.3518  -0.3165  -0.2129
     0.3782   0.3904   0.5446   0.6047   0.6441   0.6726   0.8812   0.9054
     0.9797   1.0112   1.0205   1.0440   1.0805   1.1098   1.2622   1.3443
     1.3857   1.4017   1.5435   1.5467   1.8701   1.8832   2.0415   2.0422
     2.1753   2.2333   2.2649   2.2714   2.4602   2.5699   2.5880   2.5909
     2.6137   2.7245   3.0019   3.0235   3.0566   3.0989   3.1186   3.1996
     3.3068   3.3845   3.4002   3.4240   3.4580   3.5486   3.6274   3.6333
     3.6663   3.7447   3.9281   4.0363   4.0388   4.0665   4.0705   4.1652
     4.2017   4.2152   4.2156   4.3163   4.3514   4.3789   4.4833   4.4844
     4.4936   4.5270   4.6675   4.6800   4.6830   4.6910   4.7937   4.8399
     4.8573   4.8754   4.9613   5.0183

     the Fermi energy is    -1.6813 ev

!    total energy              =   -3408.10005439 Ry
     estimated scf accuracy    <          2.5E-09 Ry
     smearing contrib. (-TS)   =      -0.00000000 Ry
     internal energy E=F+TS    =   -3408.10005439 Ry

     The total energy is F=E-TS. E is the sum of the following terms:
     one-electron contribution =  -21163.89638643 Ry
     hartree contribution      =   10674.00042582 Ry
     xc contribution           =    -696.64564070 Ry
     ewald contribution        =    7778.85281752 Ry
     Dispersion Correction     =      -0.41127060 Ry

     convergence has been achieved in  23 iterations

     Writing all to output data dir ./test.save/ :
     XML data file, charge density, pseudopotentials, collected wavefunctions
 
     init_run     :      7.46s CPU      8.82s WALL (       1 calls)
     electrons    :    664.23s CPU    670.59s WALL (       1 calls)

     Called by init_run:
     wfcinit      :      6.40s CPU      6.76s WALL (       1 calls)
     potinit      :      0.07s CPU      0.15s WALL (       1 calls)
     hinit0       :      0.11s CPU      0.80s WALL (       1 calls)

     Called by electrons:
     c_bands      :    610.33s CPU    615.34s WALL (      23 calls)
     sum_band     :     50.42s CPU     51.21s WALL (      23 calls)
     v_of_rho     :      0.98s CPU      1.11s WALL (      24 calls)
     newd         :      2.06s CPU      2.51s WALL (      24 calls)
     mix_rho      :      0.18s CPU      0.22s WALL (      23 calls)
     energy_londo :      0.03s CPU      0.03s WALL (       1 calls)

     Called by c_bands:
     init_us_2    :      8.86s CPU      8.90s WALL (     658 calls)
     cegterg      :    564.66s CPU    569.49s WALL (     322 calls)

     Called by *egterg:
     cdiaghg      :     87.09s CPU     88.29s WALL (    2917 calls)
     h_psi        :    249.76s CPU    251.97s WALL (    2931 calls)
     s_psi        :     58.35s CPU     58.62s WALL (    2931 calls)
     g_psi        :      1.22s CPU      1.24s WALL (    2595 calls)

     Called by h_psi:
     h_psi:calbec :     60.82s CPU     61.14s WALL (    2931 calls)
     vloc_psi     :    127.49s CPU    128.63s WALL (    2931 calls)
     add_vuspsi   :     59.24s CPU     59.87s WALL (    2931 calls)

     General routines
     calbec       :     78.54s CPU     78.95s WALL (    3253 calls)
     fft          :      0.82s CPU      1.33s WALL (     310 calls)
     ffts         :      0.06s CPU      0.10s WALL (      47 calls)
     fftw         :    121.80s CPU    122.85s WALL (  689520 calls)
     interpolate  :      0.06s CPU      0.11s WALL (      24 calls)
 
     Parallel routines
 
     PWSCF        :    677.98s CPU    690.05s WALL

 
   This run was terminated on:   9:39:26   8Dec2025            

=------------------------------------------------------------------------------=
   JOB DONE.
=------------------------------------------------------------------------------=
