
     Program BANDS v.7.3.1 starts on 20Feb2026 at  8: 3:24 

     This program is part of the open-source Quantum ESPRESSO suite
     for quantum simulation of materials; please cite
         "P. Giannozzi et al., J. Phys.:Condens. Matter 21 395502 (2009);
         "P. Giannozzi et al., J. Phys.:Condens. Matter 29 465901 (2017);
         "P. Giannozzi et al., J. Chem. Phys. 152 154105 (2020);
          URL http://www.quantum-espresso.org", 
     in publications or presentations arising from this work. More details at
     http://www.quantum-espresso.org/quote

     Parallel version (MPI & OpenMP), running on      64 processor cores
     Number of MPI processes:                64
     Threads/MPI process:                     1

     MPI processes distributed on     1 nodes
     R & G space division:  proc/nbgrp/npool/nimage =      64
     420016 MiB available memory on the printing compute node when the environment starts
 

     Reading xml data from directory:

     ./test.save/

     IMPORTANT: XC functional enforced from input :
     Exchange-correlation= PBE
                           (   1   4   3   4   0   0   0)
     Any further DFT definition will be discarded
     Please, verify this is what you really want

 
     Parallelization info
     --------------------
     sticks:   dense  smooth     PW     G-vecs:    dense   smooth      PW
     Min         180      90     23                33956    12002    1631
     Max         181      91     24                33969    12012    1652
     Sum       11557    5773   1531              2173495   768463  105205
 
     Using Slab Decomposition
 

     negative rho (up, down):  3.687E-03 0.000E+00
     Reading collected, re-writing distributed wavefunctions
     high-symmetry point:  0.0000 0.0000 0.0000   x coordinate   0.0000
     high-symmetry point:  0.5000 0.2887 0.0000   x coordinate   0.5774
     high-symmetry point:  0.3333 0.5773 0.0000   x coordinate   0.9107
     high-symmetry point:  0.0000 0.0000 0.0000   x coordinate   1.5773
     high-symmetry point:  0.0000 0.0000 0.2308   x coordinate   1.8081
     high-symmetry point:  0.5000 0.2887 0.2308   x coordinate   2.3854
     high-symmetry point:  0.3333 0.5773 0.2308   x coordinate   2.7187
     high-symmetry point:  0.0000 0.0000 0.2308   x coordinate   3.3853
     high-symmetry point:  0.5000 0.2887 0.2308   x coordinate   3.9627
     high-symmetry point:  0.5000 0.2887 0.0000   x coordinate   4.1935
     high-symmetry point:  0.3333 0.5773 0.0000   x coordinate   4.5268
     high-symmetry point:  0.3333 0.5773 0.2308   x coordinate   4.7577

     Plottable bands (eV) written to file bands.dat.gnu
     Bands written to file bands.dat

 **************************************************************************

                    xk=(   0.00000,   0.00000,   0.00000  )

     point group C_1 (1)    
     there are  1 classes
     the character table:

       E    
A      1.00

     the symmetry operations in each class and the name of the first element:

     E        1
                                                                 

     Band symmetry, C_1 (1)     point group:

     e(  1 -  1) =   -113.96286  eV     1   --> A              
     e(  2 -  2) =   -113.95935  eV     1   --> A              
     e(  3 -  3) =   -113.95745  eV     1   --> A              
     e(  4 -  4) =   -113.95315  eV     1   --> A              
     e(  5 -  5) =    -71.43527  eV     1   --> A              
     e(  6 -  6) =    -71.43404  eV     1   --> A              
     e(  7 -  7) =    -71.43199  eV     1   --> A              
     e(  8 -  8) =    -71.43049  eV     1   --> A              
     e(  9 -  9) =    -71.43019  eV     1   --> A              
     e( 10 - 10) =    -71.42918  eV     1   --> A              
     e( 11 - 11) =    -71.42528  eV     1   --> A              
     e( 12 - 12) =    -71.42471  eV     1   --> A              
     e( 13 - 13) =    -71.26416  eV     1   --> A              
     e( 14 - 14) =    -71.26043  eV     1   --> A              
     e( 15 - 15) =    -71.25781  eV     1   --> A              
     e( 16 - 16) =    -71.25453  eV     1   --> A              
     e( 17 - 17) =    -22.54760  eV     1   --> A              
     e( 18 - 18) =    -19.35488  eV     1   --> A              
     e( 19 - 19) =    -18.52091  eV     1   --> A              
     e( 20 - 20) =    -18.36139  eV     1   --> A              
     e( 21 - 21) =    -18.35829  eV     1   --> A              
     e( 22 - 22) =    -18.34274  eV     1   --> A              
     e( 23 - 23) =    -17.55130  eV     1   --> A              
     e( 24 - 24) =    -17.54694  eV     1   --> A              
     e( 25 - 25) =    -17.54078  eV     1   --> A              
     e( 26 - 26) =    -17.50252  eV     1   --> A              
     e( 27 - 27) =    -17.11959  eV     1   --> A              
     e( 28 - 28) =    -17.11698  eV     1   --> A              
     e( 29 - 29) =    -17.07704  eV     1   --> A              
     e( 30 - 30) =    -17.06846  eV     1   --> A              
     e( 31 - 31) =    -17.06376  eV     1   --> A              
     e( 32 - 32) =    -16.86110  eV     1   --> A              
     e( 33 - 33) =    -16.85961  eV     1   --> A              
     e( 34 - 34) =    -16.85550  eV     1   --> A              
     e( 35 - 36) =    -16.83185  eV     2   -->   2 A              
     e( 37 - 37) =    -16.82910  eV     1   --> A              
     e( 38 - 38) =    -16.82366  eV     1   --> A              
     e( 39 - 39) =    -16.82275  eV     1   --> A              
     e( 40 - 40) =    -16.81463  eV     1   --> A              
     e( 41 - 41) =    -16.80599  eV     1   --> A              
     e( 42 - 42) =    -16.80505  eV     1   --> A              
     e( 43 - 43) =    -16.79355  eV     1   --> A              
     e( 44 - 44) =    -16.72040  eV     1   --> A              
     e( 45 - 45) =    -16.71677  eV     1   --> A              
     e( 46 - 46) =    -16.70622  eV     1   --> A              
     e( 47 - 47) =    -16.03812  eV     1   --> A              
     e( 48 - 48) =    -16.03472  eV     1   --> A              
     e( 49 - 49) =    -16.02917  eV     1   --> A              
     e( 50 - 50) =    -15.57981  eV     1   --> A              
     e( 51 - 51) =    -15.57775  eV     1   --> A              
     e( 52 - 52) =    -15.57585  eV     1   --> A              
     e( 53 - 53) =    -15.41900  eV     1   --> A              
     e( 54 - 54) =    -15.41656  eV     1   --> A              
     e( 55 - 55) =    -15.31319  eV     1   --> A              
     e( 56 - 56) =    -15.29920  eV     1   --> A              
     e( 57 - 57) =    -15.29272  eV     1   --> A              
     e( 58 - 58) =    -15.07568  eV     1   --> A              
     e( 59 - 59) =    -14.95143  eV     1   --> A              
     e( 60 - 60) =    -14.94620  eV     1   --> A              
     e( 61 - 61) =    -14.94076  eV     1   --> A              
     e( 62 - 62) =    -14.82433  eV     1   --> A              
     e( 63 - 63) =    -14.81994  eV     1   --> A              
     e( 64 - 64) =    -12.81513  eV     1   --> A              
     e( 65 - 65) =    -12.16712  eV     1   --> A              
     e( 66 - 66) =    -12.16355  eV     1   --> A              
     e( 67 - 67) =    -12.14945  eV     1   --> A              
     e( 68 - 68) =    -11.40929  eV     1   --> A              
     e( 69 - 69) =    -11.02185  eV     1   --> A              
     e( 70 - 70) =    -10.50129  eV     1   --> A              
     e( 71 - 71) =    -10.49744  eV     1   --> A              
     e( 72 - 72) =    -10.47586  eV     1   --> A              
     e( 73 - 73) =    -10.11087  eV     1   --> A              
     e( 74 - 74) =     -9.39737  eV     1   --> A              
     e( 75 - 75) =     -9.12849  eV     1   --> A              
     e( 76 - 76) =     -9.12566  eV     1   --> A              
     e( 77 - 77) =     -9.12123  eV     1   --> A              
     e( 78 - 78) =     -8.42511  eV     1   --> A              
     e( 79 - 79) =     -8.42307  eV     1   --> A              
     e( 80 - 80) =     -8.41974  eV     1   --> A              
     e( 81 - 81) =     -8.35502  eV     1   --> A              
     e( 82 - 82) =     -8.35001  eV     1   --> A              
     e( 83 - 83) =     -8.32470  eV     1   --> A              
     e( 84 - 84) =     -8.11207  eV     1   --> A              
     e( 85 - 85) =     -8.10765  eV     1   --> A              
     e( 86 - 86) =     -8.10461  eV     1   --> A              
     e( 87 - 87) =     -7.85825  eV     1   --> A              
     e( 88 - 88) =     -7.82168  eV     1   --> A              
     e( 89 - 89) =     -7.81957  eV     1   --> A              
     e( 90 - 90) =     -7.76569  eV     1   --> A              
     e( 91 - 91) =     -7.75662  eV     1   --> A              
     e( 92 - 92) =     -7.74182  eV     1   --> A              
     e( 93 - 93) =     -7.19347  eV     1   --> A              
     e( 94 - 94) =     -7.18964  eV     1   --> A              
     e( 95 - 95) =     -7.17894  eV     1   --> A              
     e( 96 - 96) =     -7.08947  eV     1   --> A              
     e( 97 - 97) =     -7.07446  eV     1   --> A              
     e( 98 - 98) =     -7.06240  eV     1   --> A              
     e( 99 - 99) =     -7.05676  eV     1   --> A              
     e(100 -100) =     -6.58447  eV     1   --> A              
     e(101 -101) =     -6.48266  eV     1   --> A              
     e(102 -102) =     -6.24269  eV     1   --> A              
     e(103 -103) =     -6.23861  eV     1   --> A              
     e(104 -104) =     -6.23738  eV     1   --> A              
     e(105 -105) =     -5.96418  eV     1   --> A              
     e(106 -106) =     -5.95864  eV     1   --> A              
     e(107 -107) =     -5.95629  eV     1   --> A              
     e(108 -108) =     -5.91337  eV     1   --> A              
     e(109 -109) =     -5.73513  eV     1   --> A              
     e(110 -110) =     -5.65840  eV     1   --> A              
     e(111 -111) =     -5.65123  eV     1   --> A              
     e(112 -112) =     -5.64544  eV     1   --> A              
     e(113 -113) =     -5.59974  eV     1   --> A              
     e(114 -114) =     -5.55539  eV     1   --> A              
     e(115 -115) =     -5.55249  eV     1   --> A              
     e(116 -116) =     -5.43243  eV     1   --> A              
     e(117 -117) =     -5.42865  eV     1   --> A              
     e(118 -118) =     -5.42149  eV     1   --> A              
     e(119 -119) =     -5.22650  eV     1   --> A              
     e(120 -120) =     -5.22183  eV     1   --> A              
     e(121 -121) =     -5.20055  eV     1   --> A              
     e(122 -122) =     -5.17101  eV     1   --> A              
     e(123 -123) =     -5.16685  eV     1   --> A              
     e(124 -124) =     -4.93466  eV     1   --> A              
     e(125 -125) =     -4.93342  eV     1   --> A              
     e(126 -126) =     -4.92781  eV     1   --> A              
     e(127 -127) =     -4.79089  eV     1   --> A              
     e(128 -128) =     -4.78786  eV     1   --> A              
     e(129 -129) =     -4.77980  eV     1   --> A              
     e(130 -130) =     -4.55602  eV     1   --> A              
     e(131 -131) =     -4.54605  eV     1   --> A              
     e(132 -132) =     -4.53409  eV     1   --> A              
     e(133 -133) =     -4.52586  eV     1   --> A              
     e(134 -134) =     -4.51419  eV     1   --> A              
     e(135 -135) =     -4.49936  eV     1   --> A              
     e(136 -136) =     -4.46876  eV     1   --> A              
     e(137 -137) =     -4.46084  eV     1   --> A              
     e(138 -138) =     -4.45010  eV     1   --> A              
     e(139 -139) =     -4.10169  eV     1   --> A              
     e(140 -140) =     -4.07897  eV     1   --> A              
     e(141 -141) =     -4.07064  eV     1   --> A              
     e(142 -142) =     -3.91745  eV     1   --> A              
     e(143 -143) =     -3.91594  eV     1   --> A              
     e(144 -144) =     -3.91351  eV     1   --> A              
     e(145 -145) =     -3.78452  eV     1   --> A              
     e(146 -146) =     -3.73244  eV     1   --> A              
     e(147 -147) =     -3.72939  eV     1   --> A              
     e(148 -148) =     -3.63867  eV     1   --> A              
     e(149 -149) =     -3.63734  eV     1   --> A              
     e(150 -150) =     -3.63436  eV     1   --> A              
     e(151 -151) =     -3.59023  eV     1   --> A              
     e(152 -152) =     -3.57350  eV     1   --> A              
     e(153 -153) =     -3.56847  eV     1   --> A              
     e(154 -154) =     -3.51319  eV     1   --> A              
     e(155 -155) =     -3.51176  eV     1   --> A              
     e(156 -156) =     -3.50829  eV     1   --> A              
     e(157 -157) =     -3.38723  eV     1   --> A              
     e(158 -158) =     -3.36610  eV     1   --> A              
     e(159 -159) =     -3.34102  eV     1   --> A              
     e(160 -160) =     -3.18556  eV     1   --> A              
     e(161 -161) =     -3.16849  eV     1   --> A              
     e(162 -162) =     -3.16652  eV     1   --> A              
     e(163 -163) =     -2.99658  eV     1   --> A              
     e(164 -164) =     -2.99072  eV     1   --> A              
     e(165 -165) =     -2.97811  eV     1   --> A              
     e(166 -166) =     -2.75570  eV     1   --> A              
     e(167 -167) =     -2.75344  eV     1   --> A              
     e(168 -168) =     -2.61585  eV     1   --> A              
     e(169 -169) =     -1.05595  eV     1   --> A              
     e(170 -170) =     -0.59671  eV     1   --> A              
     e(171 -171) =     -0.59410  eV     1   --> A              
     e(172 -172) =     -0.58904  eV     1   --> A              
     e(173 -173) =     -0.07004  eV     1   --> A              
     e(174 -174) =      0.25828  eV     1   --> A              
     e(175 -175) =      0.26298  eV     1   --> A              
     e(176 -176) =      0.26643  eV     1   --> A              
     e(177 -177) =      0.29789  eV     1   --> A              
     e(178 -178) =      0.30390  eV     1   --> A              
     e(179 -179) =      0.31498  eV     1   --> A              
     e(180 -180) =      0.54625  eV     1   --> A              
     e(181 -181) =      0.54942  eV     1   --> A              
     e(182 -182) =      0.57504  eV     1   --> A              
     e(183 -183) =      0.76164  eV     1   --> A              
     e(184 -184) =      0.76568  eV     1   --> A              
     e(185 -185) =      0.77136  eV     1   --> A              
     e(186 -186) =      0.77565  eV     1   --> A              
     e(187 -187) =      0.78338  eV     1   --> A              
     e(188 -188) =      1.05955  eV     1   --> A              
     e(189 -189) =      1.22342  eV     1   --> A              
     e(190 -190) =      1.22818  eV     1   --> A              
     e(191 -191) =      1.23540  eV     1   --> A              
     e(192 -192) =      1.29790  eV     1   --> A              
     e(193 -193) =      1.54310  eV     1   --> A              
     e(194 -194) =      1.55157  eV     1   --> A              
     e(195 -195) =      1.56959  eV     1   --> A              
     e(196 -196) =      1.98936  eV     1   --> A              
     e(197 -197) =      2.00555  eV     1   --> A              
     e(198 -198) =      2.02734  eV     1   --> A              
     e(199 -199) =      2.12084  eV     1   --> A              
     e(200 -200) =      2.12611  eV     1   --> A              
     e(201 -201) =      2.14318  eV     1   --> A              
     e(202 -202) =      2.34705  eV     1   --> A              
     e(203 -203) =      2.36483  eV     1   --> A              
     e(204 -204) =      2.38344  eV     1   --> A              
     e(205 -205) =      2.41288  eV     1   --> A              
     e(206 -206) =      2.53317  eV     1   --> A              
     e(207 -207) =      2.69893  eV     1   --> A              
     e(208 -208) =      2.75975  eV     1   --> A              
     e(209 -209) =      2.76749  eV     1   --> A              
     e(210 -210) =      2.78398  eV     1   --> A              
     e(211 -211) =      2.79535  eV     1   --> A              
     e(212 -212) =      2.80036  eV     1   --> A              
     e(213 -213) =      2.93450  eV     1   --> A              
     e(214 -214) =      2.94775  eV     1   --> A              
     e(215 -215) =      2.95993  eV     1   --> A              
     e(216 -216) =      3.07013  eV     1   --> A              
     e(217 -217) =      3.19447  eV     1   --> A              
     e(218 -218) =      3.21080  eV     1   --> A              
     e(219 -219) =      3.22490  eV     1   --> A              
     e(220 -220) =      3.31871  eV     1   --> A              
     e(221 -221) =      3.44248  eV     1   --> A              
     e(222 -222) =      3.52283  eV     1   --> A              
     e(223 -223) =      3.59237  eV     1   --> A              
     e(224 -224) =      3.59539  eV     1   --> A              
     e(225 -225) =      3.63687  eV     1   --> A              
     e(226 -226) =      3.74229  eV     1   --> A              
     e(227 -227) =      3.79745  eV     1   --> A              
     e(228 -228) =      3.84325  eV     1   --> A              
     e(229 -229) =      3.86370  eV     1   --> A              
     e(230 -230) =      3.88967  eV     1   --> A              
     e(231 -231) =      3.95113  eV     1   --> A              
     e(232 -232) =      3.97453  eV     1   --> A              
     e(233 -233) =      3.97651  eV     1   --> A              
     e(234 -234) =      4.06941  eV     1   --> A              
     e(235 -235) =      4.07437  eV     1   --> A              
     e(236 -236) =      4.15332  eV     1   --> A              
     e(237 -237) =      4.16953  eV     1   --> A              
     e(238 -238) =      4.18210  eV     1   --> A              
     e(239 -239) =      4.19165  eV     1   --> A              
     e(240 -240) =      4.21969  eV     1   --> A              
     e(241 -241) =      4.25751  eV     1   --> A              
     e(242 -242) =      4.26633  eV     1   --> A              
     e(243 -243) =      4.29482  eV     1   --> A              
     e(244 -244) =      4.32984  eV     1   --> A              
     e(245 -245) =      4.34999  eV     1   --> A              
     e(246 -246) =      4.37713  eV     1   --> A              
     e(247 -247) =      4.48216  eV     1   --> A              
     e(248 -248) =      4.52173  eV     1   --> A              
     e(249 -249) =      4.60760  eV     1   --> A              
     e(250 -250) =      4.67021  eV     1   --> A              

 **************************************************************************

 **************************************************************************

                    xk=(   0.02500,   0.01443,   0.00000  )

     Band symmetry, C_1 (1)     point group:

     e(  1 -  1) =   -113.96286  eV     1   --> A              
     e(  2 -  2) =   -113.95935  eV     1   --> A              
     e(  3 -  3) =   -113.95745  eV     1   --> A              
     e(  4 -  4) =   -113.95315  eV     1   --> A              
     e(  5 -  5) =    -71.43527  eV     1   --> A              
     e(  6 -  6) =    -71.43404  eV     1   --> A              
     e(  7 -  7) =    -71.43199  eV     1   --> A              
     e(  8 -  8) =    -71.43049  eV     1   --> A              
     e(  9 -  9) =    -71.43019  eV     1   --> A              
     e( 10 - 10) =    -71.42918  eV     1   --> A              
     e( 11 - 11) =    -71.42528  eV     1   --> A              
     e( 12 - 12) =    -71.42471  eV     1   --> A              
     e( 13 - 13) =    -71.26416  eV     1   --> A              
     e( 14 - 14) =    -71.26043  eV     1   --> A              
     e( 15 - 15) =    -71.25781  eV     1   --> A              
     e( 16 - 16) =    -71.25453  eV     1   --> A              
     e( 17 - 17) =    -22.54760  eV     1   --> A              
     e( 18 - 18) =    -19.35488  eV     1   --> A              
     e( 19 - 19) =    -18.52068  eV     1   --> A              
     e( 20 - 20) =    -18.36156  eV     1   --> A              
     e( 21 - 21) =    -18.35831  eV     1   --> A              
     e( 22 - 22) =    -18.34285  eV     1   --> A              
     e( 23 - 23) =    -17.55125  eV     1   --> A              
     e( 24 - 24) =    -17.54688  eV     1   --> A              
     e( 25 - 25) =    -17.54073  eV     1   --> A              
     e( 26 - 26) =    -17.50265  eV     1   --> A              
     e( 27 - 27) =    -17.11930  eV     1   --> A              
     e( 28 - 28) =    -17.11676  eV     1   --> A              
     e( 29 - 29) =    -17.07725  eV     1   --> A              
     e( 30 - 30) =    -17.06873  eV     1   --> A              
     e( 31 - 31) =    -17.06398  eV     1   --> A              
     e( 32 - 32) =    -16.86116  eV     1   --> A              
     e( 33 - 33) =    -16.85949  eV     1   --> A              
     e( 34 - 34) =    -16.85552  eV     1   --> A              
     e( 35 - 35) =    -16.83187  eV     1   --> A              
     e( 36 - 36) =    -16.83173  eV     1   --> A              
     e( 37 - 37) =    -16.82909  eV     1   --> A              
     e( 38 - 38) =    -16.82365  eV     1   --> A              
     e( 39 - 39) =    -16.82274  eV     1   --> A              
     e( 40 - 40) =    -16.81465  eV     1   --> A              
     e( 41 - 41) =    -16.80600  eV     1   --> A              
     e( 42 - 42) =    -16.80507  eV     1   --> A              
     e( 43 - 43) =    -16.79354  eV     1   --> A              
     e( 44 - 44) =    -16.72060  eV     1   --> A              
     e( 45 - 45) =    -16.71668  eV     1   --> A              
     e( 46 - 46) =    -16.70633  eV     1   --> A              
     e( 47 - 47) =    -16.03744  eV     1   --> A              
     e( 48 - 48) =    -16.03430  eV     1   --> A              
     e( 49 - 49) =    -16.02851  eV     1   --> A              
     e( 50 - 50) =    -15.58042  eV     1   --> A              
     e( 51 - 51) =    -15.57786  eV     1   --> A              
     e( 52 - 52) =    -15.57614  eV     1   --> A              
     e( 53 - 53) =    -15.41967  eV     1   --> A              
     e( 54 - 54) =    -15.41714  eV     1   --> A              
     e( 55 - 55) =    -15.31267  eV     1   --> A              
     e( 56 - 56) =    -15.29893  eV     1   --> A              
     e( 57 - 57) =    -15.29213  eV     1   --> A              
     e( 58 - 58) =    -15.07567  eV     1   --> A              
     e( 59 - 59) =    -14.95154  eV     1   --> A              
     e( 60 - 60) =    -14.94614  eV     1   --> A              
     e( 61 - 61) =    -14.94089  eV     1   --> A              
     e( 62 - 62) =    -14.82459  eV     1   --> A              
     e( 63 - 63) =    -14.82059  eV     1   --> A              
     e( 64 - 64) =    -12.81395  eV     1   --> A              
     e( 65 - 65) =    -12.16756  eV     1   --> A              
     e( 66 - 66) =    -12.16343  eV     1   --> A              
     e( 67 - 67) =    -12.14972  eV     1   --> A              
     e( 68 - 68) =    -11.40929  eV     1   --> A              
     e( 69 - 69) =    -11.02110  eV     1   --> A              
     e( 70 - 70) =    -10.50130  eV     1   --> A              
     e( 71 - 71) =    -10.49760  eV     1   --> A              
     e( 72 - 72) =    -10.47591  eV     1   --> A              
     e( 73 - 73) =    -10.11087  eV     1   --> A              
     e( 74 - 74) =     -9.39696  eV     1   --> A              
     e( 75 - 75) =     -9.12849  eV     1   --> A              
     e( 76 - 76) =     -9.12513  eV     1   --> A              
     e( 77 - 77) =     -9.12095  eV     1   --> A              
     e( 78 - 78) =     -8.42583  eV     1   --> A              
     e( 79 - 79) =     -8.42343  eV     1   --> A              
     e( 80 - 80) =     -8.42071  eV     1   --> A              
     e( 81 - 81) =     -8.35514  eV     1   --> A              
     e( 82 - 82) =     -8.35015  eV     1   --> A              
     e( 83 - 83) =     -8.32472  eV     1   --> A              
     e( 84 - 84) =     -8.11267  eV     1   --> A              
     e( 85 - 85) =     -8.10822  eV     1   --> A              
     e( 86 - 86) =     -8.10543  eV     1   --> A              
     e( 87 - 87) =     -7.85876  eV     1   --> A              
     e( 88 - 88) =     -7.82252  eV     1   --> A              
     e( 89 - 89) =     -7.82058  eV     1   --> A              
     e( 90 - 90) =     -7.76666  eV     1   --> A              
     e( 91 - 91) =     -7.75641  eV     1   --> A              
     e( 92 - 92) =     -7.74204  eV     1   --> A              
     e( 93 - 93) =     -7.19550  eV     1   --> A              
     e( 94 - 94) =     -7.18980  eV     1   --> A              
     e( 95 - 95) =     -7.18087  eV     1   --> A              
     e( 96 - 96) =     -7.08690  eV     1   --> A              
     e( 97 - 97) =     -7.07222  eV     1   --> A              
     e( 98 - 98) =     -7.05921  eV     1   --> A              
     e( 99 - 99) =     -7.05475  eV     1   --> A              
     e(100 -100) =     -6.58447  eV     1   --> A              
     e(101 -101) =     -6.48265  eV     1   --> A              
     e(102 -102) =     -6.24189  eV     1   --> A              
     e(103 -103) =     -6.23776  eV     1   --> A              
     e(104 -104) =     -6.23669  eV     1   --> A              
     e(105 -105) =     -5.96410  eV     1   --> A              
     e(106 -106) =     -5.95875  eV     1   --> A              
     e(107 -107) =     -5.95622  eV     1   --> A              
     e(108 -108) =     -5.91264  eV     1   --> A              
     e(109 -109) =     -5.73509  eV     1   --> A              
     e(110 -110) =     -5.65846  eV     1   --> A              
     e(111 -111) =     -5.65120  eV     1   --> A              
     e(112 -112) =     -5.64527  eV     1   --> A              
     e(113 -113) =     -5.60021  eV     1   --> A              
     e(114 -114) =     -5.55582  eV     1   --> A              
     e(115 -115) =     -5.55180  eV     1   --> A              
     e(116 -116) =     -5.43253  eV     1   --> A              
     e(117 -117) =     -5.42858  eV     1   --> A              
     e(118 -118) =     -5.42157  eV     1   --> A              
     e(119 -119) =     -5.22648  eV     1   --> A              
     e(120 -120) =     -5.22191  eV     1   --> A              
     e(121 -121) =     -5.20076  eV     1   --> A              
     e(122 -122) =     -5.17178  eV     1   --> A              
     e(123 -123) =     -5.16775  eV     1   --> A              
     e(124 -124) =     -4.93480  eV     1   --> A              
     e(125 -125) =     -4.93360  eV     1   --> A              
     e(126 -126) =     -4.92798  eV     1   --> A              
     e(127 -127) =     -4.79159  eV     1   --> A              
     e(128 -128) =     -4.78851  eV     1   --> A              
     e(129 -129) =     -4.78029  eV     1   --> A              
     e(130 -130) =     -4.56164  eV     1   --> A              
     e(131 -131) =     -4.54658  eV     1   --> A              
     e(132 -132) =     -4.52879  eV     1   --> A              
     e(133 -133) =     -4.52633  eV     1   --> A              
     e(134 -134) =     -4.51336  eV     1   --> A              
     e(135 -135) =     -4.49917  eV     1   --> A              
     e(136 -136) =     -4.46645  eV     1   --> A              
     e(137 -137) =     -4.45975  eV     1   --> A              
     e(138 -138) =     -4.44857  eV     1   --> A              
     e(139 -139) =     -4.10117  eV     1   --> A              
     e(140 -140) =     -4.07856  eV     1   --> A              
     e(141 -141) =     -4.07001  eV     1   --> A              
     e(142 -142) =     -3.91687  eV     1   --> A              
     e(143 -143) =     -3.91571  eV     1   --> A              
     e(144 -144) =     -3.91290  eV     1   --> A              
     e(145 -145) =     -3.78510  eV     1   --> A              
     e(146 -146) =     -3.73150  eV     1   --> A              
     e(147 -147) =     -3.72977  eV     1   --> A              
     e(148 -148) =     -3.63880  eV     1   --> A              
     e(149 -149) =     -3.63729  eV     1   --> A              
     e(150 -150) =     -3.63433  eV     1   --> A              
     e(151 -151) =     -3.59016  eV     1   --> A              
     e(152 -152) =     -3.57406  eV     1   --> A              
     e(153 -153) =     -3.56868  eV     1   --> A              
     e(154 -154) =     -3.51307  eV     1   --> A              
     e(155 -155) =     -3.51172  eV     1   --> A              
     e(156 -156) =     -3.50836  eV     1   --> A              
     e(157 -157) =     -3.38811  eV     1   --> A              
     e(158 -158) =     -3.36827  eV     1   --> A              
     e(159 -159) =     -3.34158  eV     1   --> A              
     e(160 -160) =     -3.18597  eV     1   --> A              
     e(161 -161) =     -3.16871  eV     1   --> A              
     e(162 -162) =     -3.16659  eV     1   --> A              
     e(163 -163) =     -2.99775  eV     1   --> A              
     e(164 -164) =     -2.99060  eV     1   --> A              
     e(165 -165) =     -2.97856  eV     1   --> A              
     e(166 -166) =     -2.75796  eV     1   --> A              
     e(167 -167) =     -2.75522  eV     1   --> A              
     e(168 -168) =     -2.61585  eV     1   --> A              
     e(169 -169) =     -1.05283  eV     1   --> A              
     e(170 -170) =     -0.59711  eV     1   --> A              
     e(171 -171) =     -0.59374  eV     1   --> A              
     e(172 -172) =     -0.58874  eV     1   --> A              
     e(173 -173) =     -0.06795  eV     1   --> A              
     e(174 -174) =      0.25715  eV     1   --> A              
     e(175 -175) =      0.26113  eV     1   --> A              
     e(176 -176) =      0.26673  eV     1   --> A              
     e(177 -177) =      0.29968  eV     1   --> A              
     e(178 -178) =      0.30528  eV     1   --> A              
     e(179 -179) =      0.31680  eV     1   --> A              
     e(180 -180) =      0.54662  eV     1   --> A              
     e(181 -181) =      0.54951  eV     1   --> A              
     e(182 -182) =      0.57518  eV     1   --> A              
     e(183 -183) =      0.76127  eV     1   --> A              
     e(184 -184) =      0.76514  eV     1   --> A              
     e(185 -185) =      0.77148  eV     1   --> A              
     e(186 -186) =      0.77502  eV     1   --> A              
     e(187 -187) =      0.78278  eV     1   --> A              
     e(188 -188) =      1.05951  eV     1   --> A              
     e(189 -189) =      1.22241  eV     1   --> A              
     e(190 -190) =      1.22718  eV     1   --> A              
     e(191 -191) =      1.23499  eV     1   --> A              
     e(192 -192) =      1.29780  eV     1   --> A              
     e(193 -193) =      1.54272  eV     1   --> A              
     e(194 -194) =      1.55220  eV     1   --> A              
     e(195 -195) =      1.56937  eV     1   --> A              
     e(196 -196) =      1.98350  eV     1   --> A              
     e(197 -197) =      2.00544  eV     1   --> A              
     e(198 -198) =      2.03442  eV     1   --> A              
     e(199 -199) =      2.11862  eV     1   --> A              
     e(200 -200) =      2.12342  eV     1   --> A              
     e(201 -201) =      2.14078  eV     1   --> A              
     e(202 -202) =      2.34811  eV     1   --> A              
     e(203 -203) =      2.36681  eV     1   --> A              
     e(204 -204) =      2.38510  eV     1   --> A              
     e(205 -205) =      2.41376  eV     1   --> A              
     e(206 -206) =      2.53363  eV     1   --> A              
     e(207 -207) =      2.69878  eV     1   --> A              
     e(208 -208) =      2.75941  eV     1   --> A              
     e(209 -209) =      2.76804  eV     1   --> A              
     e(210 -210) =      2.78416  eV     1   --> A              
     e(211 -211) =      2.79346  eV     1   --> A              
     e(212 -212) =      2.80040  eV     1   --> A              
     e(213 -213) =      2.93410  eV     1   --> A              
     e(214 -214) =      2.94717  eV     1   --> A              
     e(215 -215) =      2.96002  eV     1   --> A              
     e(216 -216) =      3.07021  eV     1   --> A              
     e(217 -217) =      3.19509  eV     1   --> A              
     e(218 -218) =      3.21213  eV     1   --> A              
     e(219 -219) =      3.22657  eV     1   --> A              
     e(220 -220) =      3.31829  eV     1   --> A              
     e(221 -221) =      3.43987  eV     1   --> A              
     e(222 -222) =      3.52499  eV     1   --> A              
     e(223 -223) =      3.59112  eV     1   --> A              
     e(224 -224) =      3.59516  eV     1   --> A              
     e(225 -225) =      3.63544  eV     1   --> A              
     e(226 -226) =      3.74080  eV     1   --> A              
     e(227 -227) =      3.79945  eV     1   --> A              
     e(228 -228) =      3.84435  eV     1   --> A              
     e(229 -229) =      3.86392  eV     1   --> A              
     e(230 -230) =      3.89138  eV     1   --> A              
     e(231 -231) =      3.93793  eV     1   --> A              
     e(232 -232) =      3.96881  eV     1   --> A              
     e(233 -233) =      3.99852  eV     1   --> A              
     e(234 -234) =      4.06747  eV     1   --> A              
     e(235 -235) =      4.07619  eV     1   --> A              
     e(236 -236) =      4.14965  eV     1   --> A              
     e(237 -237) =      4.16783  eV     1   --> A              
     e(238 -238) =      4.18181  eV     1   --> A              
     e(239 -239) =      4.19093  eV     1   --> A              
     e(240 -240) =      4.22122  eV     1   --> A              
     e(241 -241) =      4.25160  eV     1   --> A              
     e(242 -242) =      4.26375  eV     1   --> A              
     e(243 -243) =      4.29000  eV     1   --> A              
     e(244 -244) =      4.33631  eV     1   --> A              
     e(245 -245) =      4.35717  eV     1   --> A              
     e(246 -246) =      4.39152  eV     1   --> A              
     e(247 -247) =      4.47906  eV     1   --> A              
     e(248 -248) =      4.52089  eV     1   --> A              
     e(249 -249) =      4.60777  eV     1   --> A              
     e(250 -250) =      4.66372  eV     1   --> A              

 **************************************************************************

 **************************************************************************

                    xk=(   0.05000,   0.02887,   0.00000  )

     Band symmetry, C_1 (1)     point group:

     e(  1 -  1) =   -113.96286  eV     1   --> A              
     e(  2 -  2) =   -113.95935  eV     1   --> A              
     e(  3 -  3) =   -113.95745  eV     1   --> A              
     e(  4 -  4) =   -113.95315  eV     1   --> A              
     e(  5 -  5) =    -71.43527  eV     1   --> A              
     e(  6 -  6) =    -71.43404  eV     1   --> A              
     e(  7 -  7) =    -71.43199  eV     1   --> A              
     e(  8 -  8) =    -71.43049  eV     1   --> A              
     e(  9 -  9) =    -71.43019  eV     1   --> A              
     e( 10 - 10) =    -71.42918  eV     1   --> A              
     e( 11 - 11) =    -71.42528  eV     1   --> A              
     e( 12 - 12) =    -71.42471  eV     1   --> A              
     e( 13 - 13) =    -71.26416  eV     1   --> A              
     e( 14 - 14) =    -71.26043  eV     1   --> A              
     e( 15 - 15) =    -71.25781  eV     1   --> A              
     e( 16 - 16) =    -71.25453  eV     1   --> A              
     e( 17 - 17) =    -22.54760  eV     1   --> A              
     e( 18 - 18) =    -19.35488  eV     1   --> A              
     e( 19 - 19) =    -18.51998  eV     1   --> A              
     e( 20 - 20) =    -18.36208  eV     1   --> A              
     e( 21 - 21) =    -18.35836  eV     1   --> A              
     e( 22 - 22) =    -18.34317  eV     1   --> A              
     e( 23 - 23) =    -17.55111  eV     1   --> A              
     e( 24 - 24) =    -17.54669  eV     1   --> A              
     e( 25 - 25) =    -17.54061  eV     1   --> A              
     e( 26 - 26) =    -17.50304  eV     1   --> A              
     e( 27 - 27) =    -17.11870  eV     1   --> A              
     e( 28 - 28) =    -17.11589  eV     1   --> A              
     e( 29 - 29) =    -17.07788  eV     1   --> A              
     e( 30 - 30) =    -17.06953  eV     1   --> A              
     e( 31 - 31) =    -17.06460  eV     1   --> A              
     e( 32 - 32) =    -16.86137  eV     1   --> A              
     e( 33 - 33) =    -16.85913  eV     1   --> A              
     e( 34 - 34) =    -16.85553  eV     1   --> A              
     e( 35 - 35) =    -16.83192  eV     1   --> A              
     e( 36 - 36) =    -16.83170  eV     1   --> A              
     e( 37 - 37) =    -16.82909  eV     1   --> A              
     e( 38 - 38) =    -16.82363  eV     1   --> A              
     e( 39 - 39) =    -16.82269  eV     1   --> A              
     e( 40 - 40) =    -16.81470  eV     1   --> A              
     e( 41 - 41) =    -16.80602  eV     1   --> A              
     e( 42 - 42) =    -16.80515  eV     1   --> A              
     e( 43 - 43) =    -16.79349  eV     1   --> A              
     e( 44 - 44) =    -16.72124  eV     1   --> A              
     e( 45 - 45) =    -16.71641  eV     1   --> A              
     e( 46 - 46) =    -16.70660  eV     1   --> A              
     e( 47 - 47) =    -16.03560  eV     1   --> A              
     e( 48 - 48) =    -16.03303  eV     1   --> A              
     e( 49 - 49) =    -16.02639  eV     1   --> A              
     e( 50 - 50) =    -15.58226  eV     1   --> A              
     e( 51 - 51) =    -15.57884  eV     1   --> A              
     e( 52 - 52) =    -15.57629  eV     1   --> A              
     e( 53 - 53) =    -15.42207  eV     1   --> A              
     e( 54 - 54) =    -15.41845  eV     1   --> A              
     e( 55 - 55) =    -15.31120  eV     1   --> A              
     e( 56 - 56) =    -15.29811  eV     1   --> A              
     e( 57 - 57) =    -15.29032  eV     1   --> A              
     e( 58 - 58) =    -15.07564  eV     1   --> A              
     e( 59 - 59) =    -14.95191  eV     1   --> A              
     e( 60 - 60) =    -14.94597  eV     1   --> A              
     e( 61 - 61) =    -14.94123  eV     1   --> A              
     e( 62 - 62) =    -14.82550  eV     1   --> A              
     e( 63 - 63) =    -14.82242  eV     1   --> A              
     e( 64 - 64) =    -12.81042  eV     1   --> A              
     e( 65 - 65) =    -12.16909  eV     1   --> A              
     e( 66 - 66) =    -12.16306  eV     1   --> A              
     e( 67 - 67) =    -12.15034  eV     1   --> A              
     e( 68 - 68) =    -11.40927  eV     1   --> A              
     e( 69 - 69) =    -11.01886  eV     1   --> A              
     e( 70 - 70) =    -10.50196  eV     1   --> A              
     e( 71 - 71) =    -10.49761  eV     1   --> A              
     e( 72 - 72) =    -10.47590  eV     1   --> A              
     e( 73 - 73) =    -10.11088  eV     1   --> A              
     e( 74 - 74) =     -9.39575  eV     1   --> A              
     e( 75 - 75) =     -9.12876  eV     1   --> A              
     e( 76 - 76) =     -9.12350  eV     1   --> A              
     e( 77 - 77) =     -9.11985  eV     1   --> A              
     e( 78 - 78) =     -8.42838  eV     1   --> A              
     e( 79 - 79) =     -8.42543  eV     1   --> A              
     e( 80 - 80) =     -8.42229  eV     1   --> A              
     e( 81 - 81) =     -8.35674  eV     1   --> A              
     e( 82 - 82) =     -8.34940  eV     1   --> A              
     e( 83 - 83) =     -8.32475  eV     1   --> A              
     e( 84 - 84) =     -8.11453  eV     1   --> A              
     e( 85 - 85) =     -8.11066  eV     1   --> A              
     e( 86 - 86) =     -8.10700  eV     1   --> A              
     e( 87 - 87) =     -7.86035  eV     1   --> A              
     e( 88 - 88) =     -7.82517  eV     1   --> A              
     e( 89 - 89) =     -7.82343  eV     1   --> A              
     e( 90 - 90) =     -7.76972  eV     1   --> A              
     e( 91 - 91) =     -7.75644  eV     1   --> A              
     e( 92 - 92) =     -7.74179  eV     1   --> A              
     e( 93 - 93) =     -7.20132  eV     1   --> A              
     e( 94 - 94) =     -7.19157  eV     1   --> A              
     e( 95 - 95) =     -7.18451  eV     1   --> A              
     e( 96 - 96) =     -7.07936  eV     1   --> A              
     e( 97 - 97) =     -7.06578  eV     1   --> A              
     e( 98 - 98) =     -7.05110  eV     1   --> A              
     e( 99 - 99) =     -7.04819  eV     1   --> A              
     e(100 -100) =     -6.58448  eV     1   --> A              
     e(101 -101) =     -6.48261  eV     1   --> A              
     e(102 -102) =     -6.23954  eV     1   --> A              
     e(103 -103) =     -6.23527  eV     1   --> A              
     e(104 -104) =     -6.23453  eV     1   --> A              
     e(105 -105) =     -5.96401  eV     1   --> A              
     e(106 -106) =     -5.95903  eV     1   --> A              
     e(107 -107) =     -5.95593  eV     1   --> A              
     e(108 -108) =     -5.91050  eV     1   --> A              
     e(109 -109) =     -5.73499  eV     1   --> A              
     e(110 -110) =     -5.65866  eV     1   --> A              
     e(111 -111) =     -5.65109  eV     1   --> A              
     e(112 -112) =     -5.64475  eV     1   --> A              
     e(113 -113) =     -5.60157  eV     1   --> A              
     e(114 -114) =     -5.55721  eV     1   --> A              
     e(115 -115) =     -5.54969  eV     1   --> A              
     e(116 -116) =     -5.43283  eV     1   --> A              
     e(117 -117) =     -5.42840  eV     1   --> A              
     e(118 -118) =     -5.42181  eV     1   --> A              
     e(119 -119) =     -5.22661  eV     1   --> A              
     e(120 -120) =     -5.22202  eV     1   --> A              
     e(121 -121) =     -5.20137  eV     1   --> A              
     e(122 -122) =     -5.17430  eV     1   --> A              
     e(123 -123) =     -5.17018  eV     1   --> A              
     e(124 -124) =     -4.93560  eV     1   --> A              
     e(125 -125) =     -4.93406  eV     1   --> A              
     e(126 -126) =     -4.92836  eV     1   --> A              
     e(127 -127) =     -4.79359  eV     1   --> A              
     e(128 -128) =     -4.79032  eV     1   --> A              
     e(129 -129) =     -4.78164  eV     1   --> A              
     e(130 -130) =     -4.57267  eV     1   --> A              
     e(131 -131) =     -4.54520  eV     1   --> A              
     e(132 -132) =     -4.52944  eV     1   --> A              
     e(133 -133) =     -4.52100  eV     1   --> A              
     e(134 -134) =     -4.51183  eV     1   --> A              
     e(135 -135) =     -4.49532  eV     1   --> A              
     e(136 -136) =     -4.46149  eV     1   --> A              
     e(137 -137) =     -4.45592  eV     1   --> A              
     e(138 -138) =     -4.44401  eV     1   --> A              
     e(139 -139) =     -4.09964  eV     1   --> A              
     e(140 -140) =     -4.07735  eV     1   --> A              
     e(141 -141) =     -4.06815  eV     1   --> A              
     e(142 -142) =     -3.91529  eV     1   --> A              
     e(143 -143) =     -3.91487  eV     1   --> A              
     e(144 -144) =     -3.91099  eV     1   --> A              
     e(145 -145) =     -3.78685  eV     1   --> A              
     e(146 -146) =     -3.73101  eV     1   --> A              
     e(147 -147) =     -3.72860  eV     1   --> A              
     e(148 -148) =     -3.63978  eV     1   --> A              
     e(149 -149) =     -3.63703  eV     1   --> A              
     e(150 -150) =     -3.63387  eV     1   --> A              
     e(151 -151) =     -3.59012  eV     1   --> A              
     e(152 -152) =     -3.57563  eV     1   --> A              
     e(153 -153) =     -3.56932  eV     1   --> A              
     e(154 -154) =     -3.51424  eV     1   --> A              
     e(155 -155) =     -3.51102  eV     1   --> A              
     e(156 -156) =     -3.50737  eV     1   --> A              
     e(157 -157) =     -3.39135  eV     1   --> A              
     e(158 -158) =     -3.37422  eV     1   --> A              
     e(159 -159) =     -3.34308  eV     1   --> A              
     e(160 -160) =     -3.18721  eV     1   --> A              
     e(161 -161) =     -3.16978  eV     1   --> A              
     e(162 -162) =     -3.16642  eV     1   --> A              
     e(163 -163) =     -3.00171  eV     1   --> A              
     e(164 -164) =     -2.99023  eV     1   --> A              
     e(165 -165) =     -2.97946  eV     1   --> A              
     e(166 -166) =     -2.76690  eV     1   --> A              
     e(167 -167) =     -2.75831  eV     1   --> A              
     e(168 -168) =     -2.61583  eV     1   --> A              
     e(169 -169) =     -1.04357  eV     1   --> A              
     e(170 -170) =     -0.59838  eV     1   --> A              
     e(171 -171) =     -0.59378  eV     1   --> A              
     e(172 -172) =     -0.58668  eV     1   --> A              
     e(173 -173) =     -0.06176  eV     1   --> A              
     e(174 -174) =      0.25190  eV     1   --> A              
     e(175 -175) =      0.25611  eV     1   --> A              
     e(176 -176) =      0.26975  eV     1   --> A              
     e(177 -177) =      0.30455  eV     1   --> A              
     e(178 -178) =      0.30964  eV     1   --> A              
     e(179 -179) =      0.32170  eV     1   --> A              
     e(180 -180) =      0.54688  eV     1   --> A              
     e(181 -181) =      0.55047  eV     1   --> A              
     e(182 -182) =      0.57577  eV     1   --> A              
     e(183 -183) =      0.75985  eV     1   --> A              
     e(184 -184) =      0.76323  eV     1   --> A              
     e(185 -185) =      0.77168  eV     1   --> A              
     e(186 -186) =      0.77372  eV     1   --> A              
     e(187 -187) =      0.78127  eV     1   --> A              
     e(188 -188) =      1.05942  eV     1   --> A              
     e(189 -189) =      1.21877  eV     1   --> A              
     e(190 -190) =      1.22461  eV     1   --> A              
     e(191 -191) =      1.23400  eV     1   --> A              
     e(192 -192) =      1.29749  eV     1   --> A              
     e(193 -193) =      1.54166  eV     1   --> A              
     e(194 -194) =      1.55391  eV     1   --> A              
     e(195 -195) =      1.56886  eV     1   --> A              
     e(196 -196) =      1.97106  eV     1   --> A              
     e(197 -197) =      2.00701  eV     1   --> A              
     e(198 -198) =      2.04839  eV     1   --> A              
     e(199 -199) =      2.11155  eV     1   --> A              
     e(200 -200) =      2.11635  eV     1   --> A              
     e(201 -201) =      2.13424  eV     1   --> A              
     e(202 -202) =      2.35101  eV     1   --> A              
     e(203 -203) =      2.37215  eV     1   --> A              
     e(204 -204) =      2.38988  eV     1   --> A              
     e(205 -205) =      2.41631  eV     1   --> A              
     e(206 -206) =      2.53499  eV     1   --> A              
     e(207 -207) =      2.69841  eV     1   --> A              
     e(208 -208) =      2.75751  eV     1   --> A              
     e(209 -209) =      2.77036  eV     1   --> A              
     e(210 -210) =      2.78374  eV     1   --> A              
     e(211 -211) =      2.78852  eV     1   --> A              
     e(212 -212) =      2.80091  eV     1   --> A              
     e(213 -213) =      2.93287  eV     1   --> A              
     e(214 -214) =      2.94557  eV     1   --> A              
     e(215 -215) =      2.96068  eV     1   --> A              
     e(216 -216) =      3.07045  eV     1   --> A              
     e(217 -217) =      3.19667  eV     1   --> A              
     e(218 -218) =      3.21562  eV     1   --> A              
     e(219 -219) =      3.23158  eV     1   --> A              
     e(220 -220) =      3.31724  eV     1   --> A              
     e(221 -221) =      3.43384  eV     1   --> A              
     e(222 -222) =      3.52878  eV     1   --> A              
     e(223 -223) =      3.58681  eV     1   --> A              
     e(224 -224) =      3.59463  eV     1   --> A              
     e(225 -225) =      3.63283  eV     1   --> A              
     e(226 -226) =      3.73745  eV     1   --> A              
     e(227 -227) =      3.80325  eV     1   --> A              
     e(228 -228) =      3.84603  eV     1   --> A              
     e(229 -229) =      3.86565  eV     1   --> A              
     e(230 -230) =      3.89664  eV     1   --> A              
     e(231 -231) =      3.91890  eV     1   --> A              
     e(232 -232) =      3.97201  eV     1   --> A              
     e(233 -233) =      4.02310  eV     1   --> A              
     e(234 -234) =      4.06260  eV     1   --> A              
     e(235 -235) =      4.08190  eV     1   --> A              
     e(236 -236) =      4.13527  eV     1   --> A              
     e(237 -237) =      4.16282  eV     1   --> A              
     e(238 -238) =      4.17890  eV     1   --> A              
     e(239 -239) =      4.19553  eV     1   --> A              
     e(240 -240) =      4.22401  eV     1   --> A              
     e(241 -241) =      4.23915  eV     1   --> A              
     e(242 -242) =      4.26060  eV     1   --> A              
     e(243 -243) =      4.28793  eV     1   --> A              
     e(244 -244) =      4.34436  eV     1   --> A              
     e(245 -245) =      4.37789  eV     1   --> A              
     e(246 -246) =      4.42185  eV     1   --> A              
     e(247 -247) =      4.47317  eV     1   --> A              
     e(248 -248) =      4.51893  eV     1   --> A              
     e(249 -249) =      4.60243  eV     1   --> A              
     e(250 -250) =      4.64357  eV     1   --> A              

 **************************************************************************

 **************************************************************************

                    xk=(   0.07500,   0.04330,   0.00000  )

     Band symmetry, C_1 (1)     point group:

     e(  1 -  1) =   -113.96286  eV     1   --> A              
     e(  2 -  2) =   -113.95935  eV     1   --> A              
     e(  3 -  3) =   -113.95745  eV     1   --> A              
     e(  4 -  4) =   -113.95315  eV     1   --> A              
     e(  5 -  5) =    -71.43527  eV     1   --> A              
     e(  6 -  6) =    -71.43404  eV     1   --> A              
     e(  7 -  7) =    -71.43199  eV     1   --> A              
     e(  8 -  8) =    -71.43049  eV     1   --> A              
     e(  9 -  9) =    -71.43019  eV     1   --> A              
     e( 10 - 10) =    -71.42918  eV     1   --> A              
     e( 11 - 11) =    -71.42528  eV     1   --> A              
     e( 12 - 12) =    -71.42471  eV     1   --> A              
     e( 13 - 13) =    -71.26416  eV     1   --> A              
     e( 14 - 14) =    -71.26043  eV     1   --> A              
     e( 15 - 15) =    -71.25781  eV     1   --> A              
     e( 16 - 16) =    -71.25453  eV     1   --> A              
     e( 17 - 17) =    -22.54760  eV     1   --> A              
     e( 18 - 18) =    -19.35488  eV     1   --> A              
     e( 19 - 19) =    -18.51881  eV     1   --> A              
     e( 20 - 20) =    -18.36299  eV     1   --> A              
     e( 21 - 21) =    -18.35843  eV     1   --> A              
     e( 22 - 22) =    -18.34366  eV     1   --> A              
     e( 23 - 23) =    -17.55089  eV     1   --> A              
     e( 24 - 24) =    -17.54637  eV     1   --> A              
     e( 25 - 25) =    -17.54039  eV     1   --> A              
     e( 26 - 26) =    -17.50367  eV     1   --> A              
     e( 27 - 27) =    -17.11819  eV     1   --> A              
     e( 28 - 28) =    -17.11395  eV     1   --> A              
     e( 29 - 29) =    -17.07891  eV     1   --> A              
     e( 30 - 30) =    -17.07080  eV     1   --> A              
     e( 31 - 31) =    -17.06561  eV     1   --> A              
     e( 32 - 32) =    -16.86192  eV     1   --> A              
     e( 33 - 33) =    -16.85854  eV     1   --> A              
     e( 34 - 34) =    -16.85538  eV     1   --> A              
     e( 35 - 35) =    -16.83199  eV     1   --> A              
     e( 36 - 36) =    -16.83166  eV     1   --> A              
     e( 37 - 37) =    -16.82907  eV     1   --> A              
     e( 38 - 38) =    -16.82359  eV     1   --> A              
     e( 39 - 39) =    -16.82262  eV     1   --> A              
     e( 40 - 40) =    -16.81478  eV     1   --> A              
     e( 41 - 41) =    -16.80604  eV     1   --> A              
     e( 42 - 42) =    -16.80526  eV     1   --> A              
     e( 43 - 43) =    -16.79340  eV     1   --> A              
     e( 44 - 44) =    -16.72244  eV     1   --> A              
     e( 45 - 45) =    -16.71597  eV     1   --> A              
     e( 46 - 46) =    -16.70689  eV     1   --> A              
     e( 47 - 47) =    -16.03307  eV     1   --> A              
     e( 48 - 48) =    -16.03079  eV     1   --> A              
     e( 49 - 49) =    -16.02249  eV     1   --> A              
     e( 50 - 50) =    -15.58529  eV     1   --> A              
     e( 51 - 51) =    -15.58125  eV     1   --> A              
     e( 52 - 52) =    -15.57573  eV     1   --> A              
     e( 53 - 53) =    -15.42659  eV     1   --> A              
     e( 54 - 54) =    -15.42010  eV     1   --> A              
     e( 55 - 55) =    -15.30896  eV     1   --> A              
     e( 56 - 56) =    -15.29675  eV     1   --> A              
     e( 57 - 57) =    -15.28715  eV     1   --> A              
     e( 58 - 58) =    -15.07560  eV     1   --> A              
     e( 59 - 59) =    -14.95259  eV     1   --> A              
     e( 60 - 60) =    -14.94573  eV     1   --> A              
     e( 61 - 61) =    -14.94168  eV     1   --> A              
     e( 62 - 62) =    -14.82776  eV     1   --> A              
     e( 63 - 63) =    -14.82469  eV     1   --> A              
     e( 64 - 64) =    -12.80457  eV     1   --> A              
     e( 65 - 65) =    -12.17217  eV     1   --> A              
     e( 66 - 66) =    -12.16239  eV     1   --> A              
     e( 67 - 67) =    -12.15090  eV     1   --> A              
     e( 68 - 68) =    -11.40924  eV     1   --> A              
     e( 69 - 69) =    -11.01514  eV     1   --> A              
     e( 70 - 70) =    -10.50449  eV     1   --> A              
     e( 71 - 71) =    -10.49661  eV     1   --> A              
     e( 72 - 72) =    -10.47551  eV     1   --> A              
     e( 73 - 73) =    -10.11089  eV     1   --> A              
     e( 74 - 74) =     -9.39374  eV     1   --> A              
     e( 75 - 75) =     -9.12975  eV     1   --> A              
     e( 76 - 76) =     -9.12077  eV     1   --> A              
     e( 77 - 77) =     -9.11754  eV     1   --> A              
     e( 78 - 78) =     -8.43390  eV     1   --> A              
     e( 79 - 79) =     -8.42903  eV     1   --> A              
     e( 80 - 80) =     -8.42317  eV     1   --> A              
     e( 81 - 81) =     -8.36083  eV     1   --> A              
     e( 82 - 82) =     -8.34680  eV     1   --> A              
     e( 83 - 83) =     -8.32466  eV     1   --> A              
     e( 84 - 84) =     -8.11807  eV     1   --> A              
     e( 85 - 85) =     -8.11521  eV     1   --> A              
     e( 86 - 86) =     -8.10835  eV     1   --> A              
     e( 87 - 87) =     -7.86319  eV     1   --> A              
     e( 88 - 88) =     -7.83014  eV     1   --> A              
     e( 89 - 89) =     -7.82753  eV     1   --> A              
     e( 90 - 90) =     -7.77523  eV     1   --> A              
     e( 91 - 91) =     -7.75784  eV     1   --> A              
     e( 92 - 92) =     -7.73918  eV     1   --> A              
     e( 93 - 93) =     -7.20981  eV     1   --> A              
     e( 94 - 94) =     -7.19805  eV     1   --> A              
     e( 95 - 95) =     -7.18554  eV     1   --> A              
     e( 96 - 96) =     -7.06737  eV     1   --> A              
     e( 97 - 97) =     -7.05558  eV     1   --> A              
     e( 98 - 98) =     -7.04155  eV     1   --> A              
     e( 99 - 99) =     -7.03569  eV     1   --> A              
     e(100 -100) =     -6.58450  eV     1   --> A              
     e(101 -101) =     -6.48254  eV     1   --> A              
     e(102 -102) =     -6.23574  eV     1   --> A              
     e(103 -103) =     -6.23131  eV     1   --> A              
     e(104 -104) =     -6.23067  eV     1   --> A              
     e(105 -105) =     -5.96445  eV     1   --> A              
     e(106 -106) =     -5.95911  eV     1   --> A              
     e(107 -107) =     -5.95528  eV     1   --> A              
     e(108 -108) =     -5.90703  eV     1   --> A              
     e(109 -109) =     -5.73482  eV     1   --> A              
     e(110 -110) =     -5.65904  eV     1   --> A              
     e(111 -111) =     -5.65080  eV     1   --> A              
     e(112 -112) =     -5.64384  eV     1   --> A              
     e(113 -113) =     -5.60376  eV     1   --> A              
     e(114 -114) =     -5.55949  eV     1   --> A              
     e(115 -115) =     -5.54626  eV     1   --> A              
     e(116 -116) =     -5.43333  eV     1   --> A              
     e(117 -117) =     -5.42820  eV     1   --> A              
     e(118 -118) =     -5.42221  eV     1   --> A              
     e(119 -119) =     -5.22731  eV     1   --> A              
     e(120 -120) =     -5.22175  eV     1   --> A              
     e(121 -121) =     -5.20226  eV     1   --> A              
     e(122 -122) =     -5.17900  eV     1   --> A              
     e(123 -123) =     -5.17350  eV     1   --> A              
     e(124 -124) =     -4.93758  eV     1   --> A              
     e(125 -125) =     -4.93507  eV     1   --> A              
     e(126 -126) =     -4.92863  eV     1   --> A              
     e(127 -127) =     -4.79670  eV     1   --> A              
     e(128 -128) =     -4.79298  eV     1   --> A              
     e(129 -129) =     -4.78361  eV     1   --> A              
     e(130 -130) =     -4.58424  eV     1   --> A              
     e(131 -131) =     -4.54240  eV     1   --> A              
     e(132 -132) =     -4.53278  eV     1   --> A              
     e(133 -133) =     -4.51682  eV     1   --> A              
     e(134 -134) =     -4.51120  eV     1   --> A              
     e(135 -135) =     -4.48503  eV     1   --> A              
     e(136 -136) =     -4.45643  eV     1   --> A              
     e(137 -137) =     -4.44905  eV     1   --> A              
     e(138 -138) =     -4.43663  eV     1   --> A              
     e(139 -139) =     -4.09724  eV     1   --> A              
     e(140 -140) =     -4.07541  eV     1   --> A              
     e(141 -141) =     -4.06518  eV     1   --> A              
     e(142 -142) =     -3.91411  eV     1   --> A              
     e(143 -143) =     -3.91205  eV     1   --> A              
     e(144 -144) =     -3.90769  eV     1   --> A              
     e(145 -145) =     -3.78978  eV     1   --> A              
     e(146 -146) =     -3.73286  eV     1   --> A              
     e(147 -147) =     -3.72408  eV     1   --> A              
     e(148 -148) =     -3.64232  eV     1   --> A              
     e(149 -149) =     -3.63645  eV     1   --> A              
     e(150 -150) =     -3.63260  eV     1   --> A              
     e(151 -151) =     -3.59055  eV     1   --> A              
     e(152 -152) =     -3.57791  eV     1   --> A              
     e(153 -153) =     -3.57057  eV     1   --> A              
     e(154 -154) =     -3.51683  eV     1   --> A              
     e(155 -155) =     -3.50938  eV     1   --> A              
     e(156 -156) =     -3.50470  eV     1   --> A              
     e(157 -157) =     -3.39929  eV     1   --> A              
     e(158 -158) =     -3.38160  eV     1   --> A              
     e(159 -159) =     -3.34511  eV     1   --> A              
     e(160 -160) =     -3.18932  eV     1   --> A              
     e(161 -161) =     -3.17191  eV     1   --> A              
     e(162 -162) =     -3.16579  eV     1   --> A              
     e(163 -163) =     -3.00913  eV     1   --> A              
     e(164 -164) =     -2.98958  eV     1   --> A              
     e(165 -165) =     -2.97998  eV     1   --> A              
     e(166 -166) =     -2.78199  eV     1   --> A              
     e(167 -167) =     -2.76287  eV     1   --> A              
     e(168 -168) =     -2.61580  eV     1   --> A              
     e(169 -169) =     -1.02856  eV     1   --> A              
     e(170 -170) =     -0.60052  eV     1   --> A              
     e(171 -171) =     -0.59530  eV     1   --> A              
     e(172 -172) =     -0.58192  eV     1   --> A              
     e(173 -173) =     -0.05172  eV     1   --> A              
     e(174 -174) =      0.24315  eV     1   --> A              
     e(175 -175) =      0.24875  eV     1   --> A              
     e(176 -176) =      0.27460  eV     1   --> A              
     e(177 -177) =      0.31242  eV     1   --> A              
     e(178 -178) =      0.31694  eV     1   --> A              
     e(179 -179) =      0.32892  eV     1   --> A              
     e(180 -180) =      0.54604  eV     1   --> A              
     e(181 -181) =      0.55261  eV     1   --> A              
     e(182 -182) =      0.57734  eV     1   --> A              
     e(183 -183) =      0.75629  eV     1   --> A              
     e(184 -184) =      0.75980  eV     1   --> A              
     e(185 -185) =      0.77095  eV     1   --> A              
     e(186 -186) =      0.77358  eV     1   --> A              
     e(187 -187) =      0.77977  eV     1   --> A              
     e(188 -188) =      1.05936  eV     1   --> A              
     e(189 -189) =      1.21192  eV     1   --> A              
     e(190 -190) =      1.22071  eV     1   --> A              
     e(191 -191) =      1.23296  eV     1   --> A              
     e(192 -192) =      1.29695  eV     1   --> A              
     e(193 -193) =      1.54013  eV     1   --> A              
     e(194 -194) =      1.55620  eV     1   --> A              
     e(195 -195) =      1.56863  eV     1   --> A              
     e(196 -196) =      1.95715  eV     1   --> A              
     e(197 -197) =      2.01022  eV     1   --> A              
     e(198 -198) =      2.06286  eV     1   --> A              
     e(199 -199) =      2.09993  eV     1   --> A              
     e(200 -200) =      2.10699  eV     1   --> A              
     e(201 -201) =      2.12493  eV     1   --> A              
     e(202 -202) =      2.35510  eV     1   --> A              
     e(203 -203) =      2.37940  eV     1   --> A              
     e(204 -204) =      2.39701  eV     1   --> A              
     e(205 -205) =      2.42033  eV     1   --> A              
     e(206 -206) =      2.53712  eV     1   --> A              
     e(207 -207) =      2.69799  eV     1   --> A              
     e(208 -208) =      2.75351  eV     1   --> A              
     e(209 -209) =      2.77251  eV     1   --> A              
     e(210 -210) =      2.77863  eV     1   --> A              
     e(211 -211) =      2.78668  eV     1   --> A              
     e(212 -212) =      2.80244  eV     1   --> A              
     e(213 -213) =      2.93072  eV     1   --> A              
     e(214 -214) =      2.94339  eV     1   --> A              
     e(215 -215) =      2.96291  eV     1   --> A              
     e(216 -216) =      3.07082  eV     1   --> A              
     e(217 -217) =      3.19840  eV     1   --> A              
     e(218 -218) =      3.22009  eV     1   --> A              
     e(219 -219) =      3.23970  eV     1   --> A              
     e(220 -220) =      3.31640  eV     1   --> A              
     e(221 -221) =      3.42749  eV     1   --> A              
     e(222 -222) =      3.52801  eV     1   --> A              
     e(223 -223) =      3.58048  eV     1   --> A              
     e(224 -224) =      3.59380  eV     1   --> A              
     e(225 -225) =      3.63177  eV     1   --> A              
     e(226 -226) =      3.73438  eV     1   --> A              
     e(227 -227) =      3.80241  eV     1   --> A              
     e(228 -228) =      3.84864  eV     1   --> A              
     e(229 -229) =      3.86992  eV     1   --> A              
     e(230 -230) =      3.90398  eV     1   --> A              
     e(231 -231) =      3.90770  eV     1   --> A              
     e(232 -232) =      3.97767  eV     1   --> A              
     e(233 -233) =      4.04010  eV     1   --> A              
     e(234 -234) =      4.05853  eV     1   --> A              
     e(235 -235) =      4.09182  eV     1   --> A              
     e(236 -236) =      4.11273  eV     1   --> A              
     e(237 -237) =      4.15470  eV     1   --> A              
     e(238 -238) =      4.17503  eV     1   --> A              
     e(239 -239) =      4.20552  eV     1   --> A              
     e(240 -240) =      4.22184  eV     1   --> A              
     e(241 -241) =      4.23436  eV     1   --> A              
     e(242 -242) =      4.26297  eV     1   --> A              
     e(243 -243) =      4.29163  eV     1   --> A              
     e(244 -244) =      4.35104  eV     1   --> A              
     e(245 -245) =      4.40316  eV     1   --> A              
     e(246 -246) =      4.44274  eV     1   --> A              
     e(247 -247) =      4.47910  eV     1   --> A              
     e(248 -248) =      4.52013  eV     1   --> A              
     e(249 -249) =      4.58518  eV     1   --> A              
     e(250 -250) =      4.65089  eV     1   --> A              

 **************************************************************************

 **************************************************************************

                    xk=(   0.10000,   0.05774,   0.00000  )

     Band symmetry, C_1 (1)     point group:

     e(  1 -  1) =   -113.96286  eV     1   --> A              
     e(  2 -  2) =   -113.95935  eV     1   --> A              
     e(  3 -  3) =   -113.95745  eV     1   --> A              
     e(  4 -  4) =   -113.95315  eV     1   --> A              
     e(  5 -  5) =    -71.43527  eV     1   --> A              
     e(  6 -  6) =    -71.43404  eV     1   --> A              
     e(  7 -  7) =    -71.43199  eV     1   --> A              
     e(  8 -  8) =    -71.43049  eV     1   --> A              
     e(  9 -  9) =    -71.43019  eV     1   --> A              
     e( 10 - 10) =    -71.42918  eV     1   --> A              
     e( 11 - 11) =    -71.42528  eV     1   --> A              
     e( 12 - 12) =    -71.42472  eV     1   --> A              
     e( 13 - 13) =    -71.26416  eV     1   --> A              
     e( 14 - 14) =    -71.26043  eV     1   --> A              
     e( 15 - 15) =    -71.25781  eV     1   --> A              
     e( 16 - 16) =    -71.25453  eV     1   --> A              
     e( 17 - 17) =    -22.54760  eV     1   --> A              
     e( 18 - 18) =    -19.35488  eV     1   --> A              
     e( 19 - 19) =    -18.51719  eV     1   --> A              
     e( 20 - 20) =    -18.36433  eV     1   --> A              
     e( 21 - 21) =    -18.35853  eV     1   --> A              
     e( 22 - 22) =    -18.34428  eV     1   --> A              
     e( 23 - 23) =    -17.55060  eV     1   --> A              
     e( 24 - 24) =    -17.54594  eV     1   --> A              
     e( 25 - 25) =    -17.54010  eV     1   --> A              
     e( 26 - 26) =    -17.50453  eV     1   --> A              
     e( 27 - 27) =    -17.11782  eV     1   --> A              
     e( 28 - 28) =    -17.11089  eV     1   --> A              
     e( 29 - 29) =    -17.08035  eV     1   --> A              
     e( 30 - 30) =    -17.07250  eV     1   --> A              
     e( 31 - 31) =    -17.06696  eV     1   --> A              
     e( 32 - 32) =    -16.86300  eV     1   --> A              
     e( 33 - 33) =    -16.85774  eV     1   --> A              
     e( 34 - 34) =    -16.85496  eV     1   --> A              
     e( 35 - 35) =    -16.83206  eV     1   --> A              
     e( 36 - 36) =    -16.83160  eV     1   --> A              
     e( 37 - 37) =    -16.82904  eV     1   --> A              
     e( 38 - 38) =    -16.82354  eV     1   --> A              
     e( 39 - 39) =    -16.82253  eV     1   --> A              
     e( 40 - 40) =    -16.81490  eV     1   --> A              
     e( 41 - 41) =    -16.80607  eV     1   --> A              
     e( 42 - 42) =    -16.80542  eV     1   --> A              
     e( 43 - 43) =    -16.79326  eV     1   --> A              
     e( 44 - 44) =    -16.72431  eV     1   --> A              
     e( 45 - 45) =    -16.71537  eV     1   --> A              
     e( 46 - 46) =    -16.70707  eV     1   --> A              
     e( 47 - 47) =    -16.03019  eV     1   --> A              
     e( 48 - 48) =    -16.02767  eV     1   --> A              
     e( 49 - 49) =    -16.01648  eV     1   --> A              
     e( 50 - 50) =    -15.58947  eV     1   --> A              
     e( 51 - 51) =    -15.58475  eV     1   --> A              
     e( 52 - 52) =    -15.57471  eV     1   --> A              
     e( 53 - 53) =    -15.43310  eV     1   --> A              
     e( 54 - 54) =    -15.42217  eV     1   --> A              
     e( 55 - 55) =    -15.30623  eV     1   --> A              
     e( 56 - 56) =    -15.29488  eV     1   --> A              
     e( 57 - 57) =    -15.28245  eV     1   --> A              
     e( 58 - 58) =    -15.07553  eV     1   --> A              
     e( 59 - 59) =    -14.95365  eV     1   --> A              
     e( 60 - 60) =    -14.94572  eV     1   --> A              
     e( 61 - 61) =    -14.94185  eV     1   --> A              
     e( 62 - 62) =    -14.83216  eV     1   --> A              
     e( 63 - 63) =    -14.82657  eV     1   --> A              
     e( 64 - 64) =    -12.79646  eV     1   --> A              
     e( 65 - 65) =    -12.17717  eV     1   --> A              
     e( 66 - 66) =    -12.16142  eV     1   --> A              
     e( 67 - 67) =    -12.15104  eV     1   --> A              
     e( 68 - 68) =    -11.40921  eV     1   --> A              
     e( 69 - 69) =    -11.00995  eV     1   --> A              
     e( 70 - 70) =    -10.50913  eV     1   --> A              
     e( 71 - 71) =    -10.49470  eV     1   --> A              
     e( 72 - 72) =    -10.47444  eV     1   --> A              
     e( 73 - 73) =    -10.11090  eV     1   --> A              
     e( 74 - 74) =     -9.39093  eV     1   --> A              
     e( 75 - 75) =     -9.13159  eV     1   --> A              
     e( 76 - 76) =     -9.11698  eV     1   --> A              
     e( 77 - 77) =     -9.11394  eV     1   --> A              
     e( 78 - 78) =     -8.44222  eV     1   --> A              
     e( 79 - 79) =     -8.43339  eV     1   --> A              
     e( 80 - 80) =     -8.42411  eV     1   --> A              
     e( 81 - 81) =     -8.36703  eV     1   --> A              
     e( 82 - 82) =     -8.34291  eV     1   --> A              
     e( 83 - 83) =     -8.32419  eV     1   --> A              
     e( 84 - 84) =     -8.12455  eV     1   --> A              
     e( 85 - 85) =     -8.11982  eV     1   --> A              
     e( 86 - 86) =     -8.10981  eV     1   --> A              
     e( 87 - 87) =     -7.86753  eV     1   --> A              
     e( 88 - 88) =     -7.83750  eV     1   --> A              
     e( 89 - 89) =     -7.83262  eV     1   --> A              
     e( 90 - 90) =     -7.78339  eV     1   --> A              
     e( 91 - 91) =     -7.76043  eV     1   --> A              
     e( 92 - 92) =     -7.73362  eV     1   --> A              
     e( 93 - 93) =     -7.21969  eV     1   --> A              
     e( 94 - 94) =     -7.20692  eV     1   --> A              
     e( 95 - 95) =     -7.18560  eV     1   --> A              
     e( 96 - 96) =     -7.05185  eV     1   --> A              
     e( 97 - 97) =     -7.04184  eV     1   --> A              
     e( 98 - 98) =     -7.02992  eV     1   --> A              
     e( 99 - 99) =     -7.01992  eV     1   --> A              
     e(100 -100) =     -6.58453  eV     1   --> A              
     e(101 -101) =     -6.48245  eV     1   --> A              
     e(102 -102) =     -6.23053  eV     1   --> A              
     e(103 -103) =     -6.22602  eV     1   --> A              
     e(104 -104) =     -6.22500  eV     1   --> A              
     e(105 -105) =     -5.96589  eV     1   --> A              
     e(106 -106) =     -5.95873  eV     1   --> A              
     e(107 -107) =     -5.95406  eV     1   --> A              
     e(108 -108) =     -5.90237  eV     1   --> A              
     e(109 -109) =     -5.73459  eV     1   --> A              
     e(110 -110) =     -5.65963  eV     1   --> A              
     e(111 -111) =     -5.65023  eV     1   --> A              
     e(112 -112) =     -5.64248  eV     1   --> A              
     e(113 -113) =     -5.60674  eV     1   --> A              
     e(114 -114) =     -5.56250  eV     1   --> A              
     e(115 -115) =     -5.54174  eV     1   --> A              
     e(116 -116) =     -5.43405  eV     1   --> A              
     e(117 -117) =     -5.42813  eV     1   --> A              
     e(118 -118) =     -5.42272  eV     1   --> A              
     e(119 -119) =     -5.22884  eV     1   --> A              
     e(120 -120) =     -5.22090  eV     1   --> A              
     e(121 -121) =     -5.20338  eV     1   --> A              
     e(122 -122) =     -5.18588  eV     1   --> A              
     e(123 -123) =     -5.17735  eV     1   --> A              
     e(124 -124) =     -4.94088  eV     1   --> A              
     e(125 -125) =     -4.93711  eV     1   --> A              
     e(126 -126) =     -4.92886  eV     1   --> A              
     e(127 -127) =     -4.80053  eV     1   --> A              
     e(128 -128) =     -4.79604  eV     1   --> A              
     e(129 -129) =     -4.78581  eV     1   --> A              
     e(130 -130) =     -4.59522  eV     1   --> A              
     e(131 -131) =     -4.53958  eV     1   --> A              
     e(132 -132) =     -4.53535  eV     1   --> A              
     e(133 -133) =     -4.51421  eV     1   --> A              
     e(134 -134) =     -4.50996  eV     1   --> A              
     e(135 -135) =     -4.47174  eV     1   --> A              
     e(136 -136) =     -4.45085  eV     1   --> A              
     e(137 -137) =     -4.44074  eV     1   --> A              
     e(138 -138) =     -4.42704  eV     1   --> A              
     e(139 -139) =     -4.09422  eV     1   --> A              
     e(140 -140) =     -4.07289  eV     1   --> A              
     e(141 -141) =     -4.06129  eV     1   --> A              
     e(142 -142) =     -3.91257  eV     1   --> A              
     e(143 -143) =     -3.90787  eV     1   --> A              
     e(144 -144) =     -3.90296  eV     1   --> A              
     e(145 -145) =     -3.79405  eV     1   --> A              
     e(146 -146) =     -3.73528  eV     1   --> A              
     e(147 -147) =     -3.71798  eV     1   --> A              
     e(148 -148) =     -3.64661  eV     1   --> A              
     e(149 -149) =     -3.63557  eV     1   --> A              
     e(150 -150) =     -3.63078  eV     1   --> A              
     e(151 -151) =     -3.59195  eV     1   --> A              
     e(152 -152) =     -3.58054  eV     1   --> A              
     e(153 -153) =     -3.57272  eV     1   --> A              
     e(154 -154) =     -3.51876  eV     1   --> A              
     e(155 -155) =     -3.50720  eV     1   --> A              
     e(156 -156) =     -3.50081  eV     1   --> A              
     e(157 -157) =     -3.41403  eV     1   --> A              
     e(158 -158) =     -3.38797  eV     1   --> A              
     e(159 -159) =     -3.34734  eV     1   --> A              
     e(160 -160) =     -3.19234  eV     1   --> A              
     e(161 -161) =     -3.17491  eV     1   --> A              
     e(162 -162) =     -3.16490  eV     1   --> A              
     e(163 -163) =     -3.02014  eV     1   --> A              
     e(164 -164) =     -2.98865  eV     1   --> A              
     e(165 -165) =     -2.97979  eV     1   --> A              
     e(166 -166) =     -2.80242  eV     1   --> A              
     e(167 -167) =     -2.76918  eV     1   --> A              
     e(168 -168) =     -2.61576  eV     1   --> A              
     e(169 -169) =     -1.00837  eV     1   --> A              
     e(170 -170) =     -0.60349  eV     1   --> A              
     e(171 -171) =     -0.59793  eV     1   --> A              
     e(172 -172) =     -0.57512  eV     1   --> A              
     e(173 -173) =     -0.03820  eV     1   --> A              
     e(174 -174) =      0.23219  eV     1   --> A              
     e(175 -175) =      0.23972  eV     1   --> A              
     e(176 -176) =      0.27898  eV     1   --> A              
     e(177 -177) =      0.32210  eV     1   --> A              
     e(178 -178) =      0.32773  eV     1   --> A              
     e(179 -179) =      0.33899  eV     1   --> A              
     e(180 -180) =      0.54435  eV     1   --> A              
     e(181 -181) =      0.55449  eV     1   --> A              
     e(182 -182) =      0.58092  eV     1   --> A              
     e(183 -183) =      0.74987  eV     1   --> A              
     e(184 -184) =      0.75501  eV     1   --> A              
     e(185 -185) =      0.76955  eV     1   --> A              
[...]
     e(199 -199) =      1.91665  eV     1   --> A              
     e(200 -200) =      1.94358  eV     1   --> A              
     e(201 -201) =      2.25577  eV     1   --> A              
     e(202 -202) =      2.27203  eV     1   --> A              
     e(203 -203) =      2.28556  eV     1   --> A              
     e(204 -204) =      2.29603  eV     1   --> A              
     e(205 -205) =      2.47230  eV     1   --> A              
     e(206 -206) =      2.54694  eV     1   --> A              
     e(207 -207) =      2.72062  eV     1   --> A              
     e(208 -208) =      2.80456  eV     1   --> A              
     e(209 -209) =      2.81495  eV     1   --> A              
     e(210 -210) =      2.83457  eV     1   --> A              
     e(211 -211) =      2.91553  eV     1   --> A              
     e(212 -212) =      2.96507  eV     1   --> A              
     e(213 -213) =      2.99586  eV     1   --> A              
     e(214 -214) =      3.01881  eV     1   --> A              
     e(215 -215) =      3.07084  eV     1   --> A              
     e(216 -216) =      3.08479  eV     1   --> A              
     e(217 -217) =      3.13305  eV     1   --> A              
     e(218 -218) =      3.15511  eV     1   --> A              
     e(219 -219) =      3.19640  eV     1   --> A              
     e(220 -220) =      3.22955  eV     1   --> A              
     e(221 -221) =      3.34164  eV     1   --> A              
     e(222 -222) =      3.37871  eV     1   --> A              
     e(223 -223) =      3.41094  eV     1   --> A              
     e(224 -224) =      3.50411  eV     1   --> A              
     e(225 -225) =      3.51119  eV     1   --> A              
     e(226 -226) =      3.53090  eV     1   --> A              
     e(227 -227) =      3.73304  eV     1   --> A              
     e(228 -228) =      3.82067  eV     1   --> A              
     e(229 -229) =      3.86741  eV     1   --> A              
     e(230 -230) =      3.89873  eV     1   --> A              
     e(231 -231) =      3.97204  eV     1   --> A              
     e(232 -232) =      4.00464  eV     1   --> A              
     e(233 -233) =      4.03046  eV     1   --> A              
     e(234 -234) =      4.04129  eV     1   --> A              
     e(235 -235) =      4.06797  eV     1   --> A              
     e(236 -236) =      4.11111  eV     1   --> A              
     e(237 -237) =      4.20750  eV     1   --> A              
     e(238 -238) =      4.29723  eV     1   --> A              
     e(239 -239) =      4.32300  eV     1   --> A              
     e(240 -240) =      4.35386  eV     1   --> A              
     e(241 -241) =      4.39725  eV     1   --> A              
     e(242 -242) =      4.43497  eV     1   --> A              
     e(243 -243) =      4.47475  eV     1   --> A              
     e(244 -244) =      4.51526  eV     1   --> A              
     e(245 -245) =      4.58890  eV     1   --> A              
     e(246 -246) =      4.66221  eV     1   --> A              
     e(247 -247) =      4.68437  eV     1   --> A              
     e(248 -248) =      4.71841  eV     1   --> A              
     e(249 -249) =      4.73196  eV     1   --> A              
     e(250 -250) =      4.77131  eV     1   --> A              

 **************************************************************************

 **************************************************************************

                    xk=(   0.33330,   0.57729,   0.23084  )

     Band symmetry, C_1 (1)     point group:

     e(  1 -  1) =   -113.96286  eV     1   --> A              
     e(  2 -  2) =   -113.95935  eV     1   --> A              
     e(  3 -  3) =   -113.95745  eV     1   --> A              
     e(  4 -  4) =   -113.95315  eV     1   --> A              
     e(  5 -  5) =    -71.43527  eV     1   --> A              
     e(  6 -  6) =    -71.43404  eV     1   --> A              
     e(  7 -  7) =    -71.43199  eV     1   --> A              
     e(  8 -  8) =    -71.43049  eV     1   --> A              
     e(  9 -  9) =    -71.43019  eV     1   --> A              
     e( 10 - 10) =    -71.42918  eV     1   --> A              
     e( 11 - 11) =    -71.42528  eV     1   --> A              
     e( 12 - 12) =    -71.42472  eV     1   --> A              
     e( 13 - 13) =    -71.26416  eV     1   --> A              
     e( 14 - 14) =    -71.26044  eV     1   --> A              
     e( 15 - 15) =    -71.25781  eV     1   --> A              
     e( 16 - 16) =    -71.25453  eV     1   --> A              
     e( 17 - 17) =    -22.54761  eV     1   --> A              
     e( 18 - 18) =    -19.35489  eV     1   --> A              
     e( 19 - 19) =    -18.42740  eV     1   --> A              
     e( 20 - 20) =    -18.42420  eV     1   --> A              
     e( 21 - 21) =    -18.41055  eV     1   --> A              
     e( 22 - 22) =    -18.33290  eV     1   --> A              
     e( 23 - 23) =    -17.54078  eV     1   --> A              
     e( 24 - 24) =    -17.53795  eV     1   --> A              
     e( 25 - 25) =    -17.53185  eV     1   --> A              
     e( 26 - 26) =    -17.52275  eV     1   --> A              
     e( 27 - 27) =    -17.12676  eV     1   --> A              
     e( 28 - 28) =    -17.11259  eV     1   --> A              
     e( 29 - 29) =    -17.10620  eV     1   --> A              
     e( 30 - 30) =    -17.09910  eV     1   --> A              
     e( 31 - 31) =    -16.93195  eV     1   --> A              
     e( 32 - 32) =    -16.92745  eV     1   --> A              
     e( 33 - 33) =    -16.92036  eV     1   --> A              
     e( 34 - 34) =    -16.83219  eV     1   --> A              
     e( 35 - 35) =    -16.83178  eV     1   --> A              
     e( 36 - 36) =    -16.82866  eV     1   --> A              
     e( 37 - 37) =    -16.82617  eV     1   --> A              
     e( 38 - 38) =    -16.82489  eV     1   --> A              
     e( 39 - 39) =    -16.82033  eV     1   --> A              
     e( 40 - 40) =    -16.81777  eV     1   --> A              
     e( 41 - 41) =    -16.81045  eV     1   --> A              
     e( 42 - 42) =    -16.80482  eV     1   --> A              
     e( 43 - 43) =    -16.77926  eV     1   --> A              
     e( 44 - 44) =    -16.77329  eV     1   --> A              
     e( 45 - 45) =    -16.76653  eV     1   --> A              
     e( 46 - 46) =    -16.64253  eV     1   --> A              
     e( 47 - 47) =    -15.99221  eV     1   --> A              
     e( 48 - 48) =    -15.77818  eV     1   --> A              
     e( 49 - 49) =    -15.77646  eV     1   --> A              
     e( 50 - 50) =    -15.77428  eV     1   --> A              
     e( 51 - 51) =    -15.76655  eV     1   --> A              
     e( 52 - 52) =    -15.55942  eV     1   --> A              
     e( 53 - 53) =    -15.55495  eV     1   --> A              
     e( 54 - 54) =    -15.55025  eV     1   --> A              
     e( 55 - 55) =    -15.29265  eV     1   --> A              
     e( 56 - 56) =    -15.11924  eV     1   --> A              
     e( 57 - 57) =    -15.11204  eV     1   --> A              
     e( 58 - 58) =    -15.10067  eV     1   --> A              
     e( 59 - 59) =    -15.06638  eV     1   --> A              
     e( 60 - 60) =    -15.01590  eV     1   --> A              
     e( 61 - 61) =    -14.91946  eV     1   --> A              
     e( 62 - 62) =    -14.90397  eV     1   --> A              
     e( 63 - 63) =    -14.89116  eV     1   --> A              
     e( 64 - 64) =    -12.38880  eV     1   --> A              
     e( 65 - 65) =    -12.38474  eV     1   --> A              
     e( 66 - 66) =    -12.37034  eV     1   --> A              
     e( 67 - 67) =    -12.04622  eV     1   --> A              
     e( 68 - 68) =    -11.40852  eV     1   --> A              
     e( 69 - 69) =    -10.69949  eV     1   --> A              
     e( 70 - 70) =    -10.69537  eV     1   --> A              
     e( 71 - 71) =    -10.67500  eV     1   --> A              
     e( 72 - 72) =    -10.32801  eV     1   --> A              
     e( 73 - 73) =    -10.11011  eV     1   --> A              
     e( 74 - 74) =     -9.21145  eV     1   --> A              
     e( 75 - 75) =     -9.20299  eV     1   --> A              
     e( 76 - 76) =     -9.19365  eV     1   --> A              
     e( 77 - 77) =     -8.86148  eV     1   --> A              
     e( 78 - 78) =     -8.58714  eV     1   --> A              
     e( 79 - 79) =     -8.58403  eV     1   --> A              
     e( 80 - 80) =     -8.58378  eV     1   --> A              
     e( 81 - 81) =     -8.36147  eV     1   --> A              
     e( 82 - 82) =     -8.34388  eV     1   --> A              
     e( 83 - 83) =     -8.32912  eV     1   --> A              
     e( 84 - 84) =     -8.19023  eV     1   --> A              
     e( 85 - 85) =     -8.10579  eV     1   --> A              
     e( 86 - 86) =     -8.09712  eV     1   --> A              
     e( 87 - 87) =     -8.09066  eV     1   --> A              
     e( 88 - 88) =     -8.03510  eV     1   --> A              
     e( 89 - 89) =     -8.02859  eV     1   --> A              
     e( 90 - 90) =     -8.02119  eV     1   --> A              
     e( 91 - 91) =     -7.78898  eV     1   --> A              
     e( 92 - 92) =     -7.46199  eV     1   --> A              
     e( 93 - 93) =     -7.32523  eV     1   --> A              
     e( 94 - 94) =     -7.32027  eV     1   --> A              
     e( 95 - 95) =     -7.31229  eV     1   --> A              
     e( 96 - 96) =     -6.85049  eV     1   --> A              
     e( 97 - 97) =     -6.73946  eV     1   --> A              
     e( 98 - 98) =     -6.73346  eV     1   --> A              
     e( 99 - 99) =     -6.72834  eV     1   --> A              
     e(100 -100) =     -6.58601  eV     1   --> A              
     e(101 -101) =     -6.48129  eV     1   --> A              
     e(102 -102) =     -6.03068  eV     1   --> A              
     e(103 -103) =     -5.99899  eV     1   --> A              
     e(104 -104) =     -5.99668  eV     1   --> A              
     e(105 -105) =     -5.99423  eV     1   --> A              
     e(106 -106) =     -5.97774  eV     1   --> A              
     e(107 -107) =     -5.88393  eV     1   --> A              
     e(108 -108) =     -5.88251  eV     1   --> A              
     e(109 -109) =     -5.87616  eV     1   --> A              
     e(110 -110) =     -5.74989  eV     1   --> A              
     e(111 -111) =     -5.63870  eV     1   --> A              
     e(112 -112) =     -5.57884  eV     1   --> A              
     e(113 -113) =     -5.57429  eV     1   --> A              
     e(114 -114) =     -5.56742  eV     1   --> A              
     e(115 -115) =     -5.53123  eV     1   --> A              
     e(116 -116) =     -5.41651  eV     1   --> A              
     e(117 -117) =     -5.41226  eV     1   --> A              
     e(118 -118) =     -5.39876  eV     1   --> A              
     e(119 -119) =     -5.30997  eV     1   --> A              
     e(120 -120) =     -5.30130  eV     1   --> A              
     e(121 -121) =     -5.28587  eV     1   --> A              
     e(122 -122) =     -5.15274  eV     1   --> A              
     e(123 -123) =     -5.14293  eV     1   --> A              
     e(124 -124) =     -5.14022  eV     1   --> A              
     e(125 -125) =     -5.13606  eV     1   --> A              
     e(126 -126) =     -5.13052  eV     1   --> A              
     e(127 -127) =     -4.78690  eV     1   --> A              
     e(128 -128) =     -4.70830  eV     1   --> A              
     e(129 -129) =     -4.70473  eV     1   --> A              
     e(130 -130) =     -4.67278  eV     1   --> A              
     e(131 -131) =     -4.49090  eV     1   --> A              
     e(132 -132) =     -4.48812  eV     1   --> A              
     e(133 -133) =     -4.48196  eV     1   --> A              
     e(134 -134) =     -4.37865  eV     1   --> A              
     e(135 -135) =     -4.33612  eV     1   --> A              
     e(136 -136) =     -4.31829  eV     1   --> A              
     e(137 -137) =     -4.31341  eV     1   --> A              
     e(138 -138) =     -4.30194  eV     1   --> A              
     e(139 -139) =     -4.13671  eV     1   --> A              
     e(140 -140) =     -4.12062  eV     1   --> A              
     e(141 -141) =     -4.10929  eV     1   --> A              
     e(142 -142) =     -4.09993  eV     1   --> A              
     e(143 -143) =     -3.79888  eV     1   --> A              
     e(144 -144) =     -3.79549  eV     1   --> A              
     e(145 -145) =     -3.79022  eV     1   --> A              
     e(146 -146) =     -3.78783  eV     1   --> A              
     e(147 -147) =     -3.69289  eV     1   --> A              
     e(148 -148) =     -3.68982  eV     1   --> A              
     e(149 -149) =     -3.68720  eV     1   --> A              
     e(150 -150) =     -3.61681  eV     1   --> A              
     e(151 -151) =     -3.61296  eV     1   --> A              
     e(152 -152) =     -3.60583  eV     1   --> A              
     e(153 -153) =     -3.58958  eV     1   --> A              
     e(154 -154) =     -3.48345  eV     1   --> A              
     e(155 -155) =     -3.47101  eV     1   --> A              
     e(156 -156) =     -3.42867  eV     1   --> A              
     e(157 -157) =     -3.42345  eV     1   --> A              
     e(158 -158) =     -3.41967  eV     1   --> A              
     e(159 -159) =     -3.37633  eV     1   --> A              
     e(160 -160) =     -3.32348  eV     1   --> A              
     e(161 -161) =     -3.31491  eV     1   --> A              
     e(162 -162) =     -3.28279  eV     1   --> A              
     e(163 -163) =     -3.18217  eV     1   --> A              
     e(164 -164) =     -3.06920  eV     1   --> A              
     e(165 -165) =     -3.06104  eV     1   --> A              
     e(166 -166) =     -3.05856  eV     1   --> A              
     e(167 -167) =     -2.80484  eV     1   --> A              
     e(168 -168) =     -2.61593  eV     1   --> A              
     e(169 -169) =     -0.74103  eV     1   --> A              
     e(170 -170) =     -0.56900  eV     1   --> A              
     e(171 -171) =     -0.56690  eV     1   --> A              
     e(172 -172) =     -0.55614  eV     1   --> A              
     e(173 -173) =     -0.11630  eV     1   --> A              
     e(174 -174) =      0.14594  eV     1   --> A              
     e(175 -175) =      0.19806  eV     1   --> A              
     e(176 -176) =      0.20668  eV     1   --> A              
     e(177 -177) =      0.22057  eV     1   --> A              
     e(178 -178) =      0.49657  eV     1   --> A              
     e(179 -179) =      0.64653  eV     1   --> A              
     e(180 -180) =      0.65317  eV     1   --> A              
     e(181 -181) =      0.65804  eV     1   --> A              
     e(182 -182) =      0.70565  eV     1   --> A              
     e(183 -183) =      0.72309  eV     1   --> A              
     e(184 -184) =      0.73078  eV     1   --> A              
     e(185 -185) =      0.73861  eV     1   --> A              
     e(186 -186) =      0.81455  eV     1   --> A              
     e(187 -187) =      0.92119  eV     1   --> A              
     e(188 -188) =      0.92622  eV     1   --> A              
     e(189 -189) =      0.94476  eV     1   --> A              
     e(190 -190) =      1.22634  eV     1   --> A              
     e(191 -191) =      1.23256  eV     1   --> A              
     e(192 -192) =      1.23688  eV     1   --> A              
     e(193 -193) =      1.38100  eV     1   --> A              
     e(194 -194) =      1.86921  eV     1   --> A              
     e(195 -195) =      1.89283  eV     1   --> A              
     e(196 -196) =      1.89964  eV     1   --> A              
     e(197 -197) =      1.90774  eV     1   --> A              
     e(198 -198) =      1.90919  eV     1   --> A              
     e(199 -199) =      1.91665  eV     1   --> A              
     e(200 -200) =      1.94358  eV     1   --> A              
     e(201 -201) =      2.25577  eV     1   --> A              
     e(202 -202) =      2.27203  eV     1   --> A              
     e(203 -203) =      2.28555  eV     1   --> A              
     e(204 -204) =      2.29603  eV     1   --> A              
     e(205 -205) =      2.47230  eV     1   --> A              
     e(206 -206) =      2.54696  eV     1   --> A              
     e(207 -207) =      2.72062  eV     1   --> A              
     e(208 -208) =      2.80457  eV     1   --> A              
     e(209 -209) =      2.81502  eV     1   --> A              
     e(210 -210) =      2.83454  eV     1   --> A              
     e(211 -211) =      2.91543  eV     1   --> A              
     e(212 -212) =      2.96503  eV     1   --> A              
     e(213 -213) =      2.99591  eV     1   --> A              
     e(214 -214) =      3.01915  eV     1   --> A              
     e(215 -215) =      3.07099  eV     1   --> A              
     e(216 -216) =      3.08511  eV     1   --> A              
     e(217 -217) =      3.13246  eV     1   --> A              
     e(218 -218) =      3.15432  eV     1   --> A              
     e(219 -219) =      3.19633  eV     1   --> A              
     e(220 -220) =      3.22796  eV     1   --> A              
     e(221 -221) =      3.34238  eV     1   --> A              
     e(222 -222) =      3.37988  eV     1   --> A              
     e(223 -223) =      3.41279  eV     1   --> A              
     e(224 -224) =      3.50422  eV     1   --> A              
     e(225 -225) =      3.51177  eV     1   --> A              
     e(226 -226) =      3.53129  eV     1   --> A              
     e(227 -227) =      3.73216  eV     1   --> A              
     e(228 -228) =      3.81734  eV     1   --> A              
     e(229 -229) =      3.86491  eV     1   --> A              
     e(230 -230) =      3.89621  eV     1   --> A              
     e(231 -231) =      3.96943  eV     1   --> A              
     e(232 -232) =      4.00503  eV     1   --> A              
     e(233 -233) =      4.03353  eV     1   --> A              
     e(234 -234) =      4.04517  eV     1   --> A              
     e(235 -235) =      4.07294  eV     1   --> A              
     e(236 -236) =      4.11075  eV     1   --> A              
     e(237 -237) =      4.20806  eV     1   --> A              
     e(238 -238) =      4.29774  eV     1   --> A              
     e(239 -239) =      4.32216  eV     1   --> A              
     e(240 -240) =      4.35370  eV     1   --> A              
     e(241 -241) =      4.39798  eV     1   --> A              
     e(242 -242) =      4.43472  eV     1   --> A              
     e(243 -243) =      4.47319  eV     1   --> A              
     e(244 -244) =      4.51572  eV     1   --> A              
     e(245 -245) =      4.59273  eV     1   --> A              
     e(246 -246) =      4.65833  eV     1   --> A              
     e(247 -247) =      4.68131  eV     1   --> A              
     e(248 -248) =      4.71486  eV     1   --> A              
     e(249 -249) =      4.73314  eV     1   --> A              
     e(250 -250) =      4.75937  eV     1   --> A              

 **************************************************************************
 
     BANDS        :    175.45s CPU    259.33s WALL

 
   This run was terminated on:   8: 7:43  20Feb2026            

=------------------------------------------------------------------------------=
   JOB DONE.
=------------------------------------------------------------------------------=
