
     Program PWSCF v.7.3.1 starts on 19Feb2026 at 16:22:54 

     This program is part of the open-source Quantum ESPRESSO suite
     for quantum simulation of materials; please cite
         "P. Giannozzi et al., J. Phys.:Condens. Matter 21 395502 (2009);
         "P. Giannozzi et al., J. Phys.:Condens. Matter 29 465901 (2017);
         "P. Giannozzi et al., J. Chem. Phys. 152 154105 (2020);
          URL http://www.quantum-espresso.org", 
     in publications or presentations arising from this work. More details at
     http://www.quantum-espresso.org/quote

     Parallel version (MPI & OpenMP), running on      64 processor cores
     Number of MPI processes:                64
     Threads/MPI process:                     1

     MPI processes distributed on     1 nodes
     455248 MiB available memory on the printing compute node when the environment starts
 
     Waiting for input...
     Reading input from standard input
Warning: card &IONS ignored
Warning: card / ignored
Warning: card &CELL ignored
Warning: card   PRESS = 0.0, ignored
Warning: card / ignored

     Current dimensions of program PWSCF are:
     Max number of different atomic species (ntypx) = 10
     Max number of k-points (npk) =  40000
     Max angular momentum in pseudopotentials (lmaxx) =  4

     IMPORTANT: XC functional enforced from input :
     Exchange-correlation= PBE
                           (   1   4   3   4   0   0   0)
     Any further DFT definition will be discarded
     Please, verify this is what you really want


     Atomic positions and unit cell read from directory:
     ./test.save/
 
 
     R & G space division:  proc/nbgrp/npool/nimage =      64
     Subspace diagonalization in iterative solution of the eigenvalue problem:
     one sub-group per band group will be used
     ELPA distributed-memory algorithm (size of sub-group:  3*  3 procs)

 
     Parallelization info
     --------------------
     sticks:   dense  smooth     PW     G-vecs:    dense   smooth      PW
     Min         180      90     23                33956    12002    1631
     Max         181      91     24                33969    12012    1652
     Sum       11557    5773   1531              2173495   768463  105205
 
     Using Slab Decomposition
 


     bravais-lattice index     =            4
     lattice parameter (alat)  =      22.8869  a.u.
     unit-cell volume          =   22488.0312 (a.u.)^3
     number of atoms/cell      =           49
     number of atomic types    =            8
     number of electrons       =       336.00
     number of Kohn-Sham states=          250
     kinetic-energy cutoff     =      40.0000  Ry
     charge density cutoff     =     320.0000  Ry
     Exchange-correlation= PBE
                           (   1   4   3   4   0   0   0)

     celldm(1)=  22.886890  celldm(2)=   0.000000  celldm(3)=   2.166010
     celldm(4)=   0.000000  celldm(5)=   0.000000  celldm(6)=   0.000000

     crystal axes: (cart. coord. in units of alat)
               a(1) = (   1.000000   0.000000   0.000000 )  
               a(2) = (  -0.500000   0.866025   0.000000 )  
               a(3) = (   0.000000   0.000000   2.166010 )  

     reciprocal axes: (cart. coord. in units 2 pi/alat)
               b(1) = (  1.000000  0.577350  0.000000 )  
               b(2) = (  0.000000  1.154701  0.000000 )  
               b(3) = (  0.000000  0.000000  0.461678 )  


     PseudoPot. # 1 for Cu read from file:
     ./cu_pbe_v1.2.uspp.F.UPF
     MD5 check sum: 6e991ff952a84172a2a52a1c1e996048
     Pseudo is Ultrasoft + core correction, Zval = 19.0
     Generated by new atomic code, or converted to UPF format
     Using radial grid of  867 points,  6 beta functions with: 
                l(1) =   0
                l(2) =   0
                l(3) =   1
                l(4) =   1
                l(5) =   2
                l(6) =   2
     Q(r) pseudized with  8 coefficients,  rinner =    1.150   1.150   1.150
                                                       1.150   1.150

     PseudoPot. # 2 for In read from file:
     ./in_pbe_v1.4.uspp.F.UPF
     MD5 check sum: 90777abd96fbb83f2e67db2a40c566b9
     Pseudo is Ultrasoft + core correction, Zval = 13.0
     Generated by new atomic code, or converted to UPF format
     Using radial grid of  889 points,  6 beta functions with: 
                l(1) =   0
                l(2) =   0
                l(3) =   1
                l(4) =   1
                l(5) =   2
                l(6) =   2
     Q(r) pseudized with  6 coefficients,  rinner =    1.400   1.400   1.400
                                                       1.400   1.400

     PseudoPot. # 3 for P  read from file:
     ./p_pbe_v1.5.uspp.F.UPF
     MD5 check sum: eb82b2c351da08c5f5f8709277dc7ee5
     Pseudo is Ultrasoft + core correction, Zval =  5.0
     Generated by new atomic code, or converted to UPF format
     Using radial grid of  903 points,  6 beta functions with: 
                l(1) =   0
                l(2) =   0
                l(3) =   1
                l(4) =   1
                l(5) =   2
                l(6) =   2
     Q(r) pseudized with  8 coefficients,  rinner =    1.300   1.300   1.300
                                                       1.300   1.300

     PseudoPot. # 4 for S  read from file:
     ./s_pbe_v1.4.uspp.F.UPF
     MD5 check sum: 88d86576ff6df21479756cfb9bdac1df
     Pseudo is Ultrasoft + core correction, Zval =  6.0
     Generated by new atomic code, or converted to UPF format
     Using radial grid of  907 points,  6 beta functions with: 
                l(1) =   0
                l(2) =   0
                l(3) =   1
                l(4) =   1
                l(5) =   2
                l(6) =   2
     Q(r) pseudized with  8 coefficients,  rinner =    1.300   1.300   1.300
                                                       1.300   1.300

     PseudoPot. # 5 for C  read from file:
     ./c_pbe_v1.2.uspp.F.UPF
     MD5 check sum: d1aef80898a10debaa0f26306b886e00
     Pseudo is Ultrasoft + core correction, Zval =  4.0
     Generated by new atomic code, or converted to UPF format
     Using radial grid of  721 points,  4 beta functions with: 
                l(1) =   0
                l(2) =   0
                l(3) =   1
                l(4) =   1
     Q(r) pseudized with  8 coefficients,  rinner =    1.100   1.100   1.100


     PseudoPot. # 6 for O  read from file:
     ./o_pbe_v1.2.uspp.F.UPF
     MD5 check sum: 734c27235a0248c51dbae37a1fbe46ec
     Pseudo is Ultrasoft + core correction, Zval =  6.0
     Generated by new atomic code, or converted to UPF format
     Using radial grid of  737 points,  5 beta functions with: 
                l(1) =   0
                l(2) =   0
                l(3) =   1
                l(4) =   1
                l(5) =   2
     Q(r) pseudized with  8 coefficients,  rinner =    0.900   0.900   0.900
                                                       0.900   0.900

     PseudoPot. # 7 for N  read from file:
     ./n_pbe_v1.2.uspp.F.UPF
     MD5 check sum: 95339753478d7afb44899504a8723017
     Pseudo is Ultrasoft + core correction, Zval =  5.0
     Generated by new atomic code, or converted to UPF format
     Using radial grid of  729 points,  4 beta functions with: 
                l(1) =   0
                l(2) =   0
                l(3) =   1
                l(4) =   1
     Q(r) pseudized with  8 coefficients,  rinner =    0.900   0.900   0.900


     PseudoPot. # 8 for H  read from file:
     ./h_pbe_v1.4.uspp.F.UPF
     MD5 check sum: 761ae9a214b05c3daf00ab9f6b793d6f
     Pseudo is Ultrasoft, Zval =  1.0
     Generated by new atomic code, or converted to UPF format
     Using radial grid of  615 points,  2 beta functions with: 
                l(1) =   0
                l(2) =   0
     Q(r) pseudized with  8 coefficients,  rinner =    0.700

     atomic species   valence    mass     pseudopotential
     Cu               19.00    63.54600     Cu( 1.00)
     In               13.00   114.81800     In( 1.00)
     P                 5.00    30.97400     P ( 1.00)
     S                 6.00    32.06500     S ( 1.00)
     C                 4.00    12.01100     C ( 1.00)
     O                 6.00    15.99900     O ( 1.00)
     N                 5.00    14.00670     N ( 1.00)
     H                 1.00     1.00780     H ( 1.00)

     No symmetry found



   Cartesian axes

     site n.     atom                  positions (alat units)
         1        Cu     tau(   1) = (   0.2605789   0.1376236   0.9443301  )
         2        Cu     tau(   2) = (   0.0095039   0.5705736   0.9436663  )
         3        Cu     tau(   3) = (   0.7599048   0.1378478   0.9439182  )
         4        Cu     tau(   4) = (   0.5101399   0.5708522   0.9435100  )
         5        In     tau(   5) = (   1.0111715  -0.0063874   1.0740552  )
         6        In     tau(   6) = (   0.7605840   0.4268787   1.0716279  )
         7        In     tau(   7) = (   0.5091198  -0.0069521   1.0740736  )
         8        In     tau(   8) = (   0.2612715   0.4265247   1.0715964  )
         9        P      tau(   9) = (   0.0104936   0.2819282   0.9630834  )
        10        P      tau(  10) = (  -0.2396607   0.7152470   0.9636761  )
        11        P      tau(  11) = (   0.5105277   0.2820182   0.9621266  )
        12        P      tau(  12) = (   0.2602918   0.7153020   0.9648393  )
        13        P      tau(  13) = (   0.0107410   0.2824722   1.1489092  )
        14        P      tau(  14) = (  -0.2389876   0.7154761   1.1496741  )
        15        P      tau(  15) = (   0.5110100   0.2821863   1.1479557  )
        16        P      tau(  16) = (   0.2605337   0.7151734   1.1507632  )
        17        S      tau(  17) = (  -0.0596262   0.1354089   0.9126321  )
        18        S      tau(  18) = (  -0.3095546   0.5691644   0.9112707  )
        19        S      tau(  19) = (   0.4407197   0.1355395   0.9112604  )
        20        S      tau(  20) = (   0.1901437   0.5691818   0.9128101  )
        21        S      tau(  21) = (   0.4217328   0.7281116   0.9129029  )
        22        S      tau(  22) = (   0.6721140   0.2949780   0.9105341  )
        23        S      tau(  23) = (  -0.0781683   0.7280632   0.9116949  )
        24        S      tau(  24) = (   0.1719731   0.2944846   0.9111612  )
        25        S      tau(  25) = (  -0.3316456   0.8488396   0.9122887  )
        26        S      tau(  26) = (  -0.0814621   0.4152295   0.9107509  )
        27        S      tau(  27) = (   0.1681200   0.8485808   0.9133290  )
        28        S      tau(  28) = (   0.4187655   0.4156989   0.9103290  )
        29        S      tau(  29) = (   0.3338133   0.8593782   1.1941717  )
        30        S      tau(  30) = (   0.5830219   0.4268207   1.1915866  )
        31        S      tau(  31) = (  -0.1665659   0.8590100   1.1951371  )
        32        S      tau(  32) = (   0.0833619   0.4273768   1.1914326  )
        33        S      tau(  33) = (   0.0995343   0.1478621   1.1938043  )
        34        S      tau(  34) = (  -0.1505562   0.5796069   1.1920369  )
        35        S      tau(  35) = (   0.5999463   0.1474275   1.1915630  )
        36        S      tau(  36) = (   0.3492070   0.5795582   1.1935788  )
        37        S      tau(  37) = (  -0.4004810   0.7056961   1.1931345  )
        38        S      tau(  38) = (  -0.1506582   0.2735965   1.1925885  )
        39        S      tau(  39) = (   0.0994410   0.7065023   1.1949628  )
        40        S      tau(  40) = (   0.3492319   0.2721088   1.1908235  )
        41        C      tau(  41) = (   0.2033664   0.1902803   1.4671327  )
        42        C      tau(  42) = (   0.0964508   0.1592580   1.5245436  )
        43        O      tau(  43) = (   0.2687107   0.1204809   1.4326901  )
        44        N      tau(  44) = (   0.2219821   0.3010319   1.4553616  )
        45        H      tau(  45) = (   0.1632093   0.3579432   1.4746230  )
        46        H      tau(  46) = (   0.2871579   0.3254147   1.4077065  )
        47        H      tau(  47) = (   0.1127283   0.0906667   1.5818060  )
        48        H      tau(  48) = (   0.0379898   0.1292573   1.4614372  )
        49        H      tau(  49) = (   0.0579219   0.2282674   1.5695808  )

     -------------------------------------------------
     Parameters for Dispersion (Grimme-D2) Correction:
     -------------------------------------------------
       atom      VdW radius       C_6     

        Cu         2.952        374.666
        In         3.160       1294.678
        P          3.222        271.980
        S          3.180        193.230
        C          2.744         60.710
        O          2.536         24.284
        N          2.640         42.670
        H          1.892          4.857

     number of k points=   221  Gaussian smearing, width (Ry)=  0.0100

     Number of k-points >= 100: set verbosity='high' to print them.

     Dense  grid:  2173495 G-vectors     FFT dimensions: ( 135, 135, 288)

     Smooth grid:   768463 G-vectors     FFT dimensions: (  96,  96, 200)

     Estimated max dynamical RAM per process >     161.58 MB

     Estimated total dynamical RAM >      10.10 GB

     The potential is recalculated from file :
     ./test.save/charge-density


     negative rho (up, down):  3.687E-03 0.000E+00
     Starting wfcs are  237 randomized atomic wfcs +   13 random wfcs

     Band Structure Calculation
     CG style diagonalization
     c_bands: 12 eigenvalues not converged
     c_bands: 10 eigenvalues not converged
     c_bands: 10 eigenvalues not converged
     c_bands: 14 eigenvalues not converged
     c_bands: 10 eigenvalues not converged
     c_bands: 13 eigenvalues not converged
     c_bands: 13 eigenvalues not converged
     c_bands:  9 eigenvalues not converged
     c_bands: 12 eigenvalues not converged
     c_bands: 13 eigenvalues not converged
     c_bands: 10 eigenvalues not converged
     c_bands: 11 eigenvalues not converged
     c_bands:  9 eigenvalues not converged
     c_bands: 13 eigenvalues not converged
     c_bands: 12 eigenvalues not converged
     c_bands:  9 eigenvalues not converged
     c_bands: 13 eigenvalues not converged
     c_bands: 11 eigenvalues not converged
     c_bands: 11 eigenvalues not converged
     c_bands: 11 eigenvalues not converged
     c_bands: 10 eigenvalues not converged
     c_bands:  9 eigenvalues not converged
     c_bands: 12 eigenvalues not converged
     c_bands: 12 eigenvalues not converged
     c_bands: 13 eigenvalues not converged
     c_bands: 10 eigenvalues not converged
     c_bands: 12 eigenvalues not converged
     c_bands: 11 eigenvalues not converged
     c_bands: 10 eigenvalues not converged
     c_bands: 10 eigenvalues not converged
     c_bands: 11 eigenvalues not converged
     c_bands: 11 eigenvalues not converged
     c_bands: 10 eigenvalues not converged
     c_bands: 12 eigenvalues not converged
     c_bands: 14 eigenvalues not converged
     c_bands: 11 eigenvalues not converged
     c_bands: 12 eigenvalues not converged
     c_bands: 11 eigenvalues not converged
     c_bands: 11 eigenvalues not converged
     c_bands: 11 eigenvalues not converged
     c_bands: 11 eigenvalues not converged
     c_bands: 10 eigenvalues not converged
     c_bands: 12 eigenvalues not converged
     c_bands:  8 eigenvalues not converged
     c_bands: 12 eigenvalues not converged
     c_bands: 12 eigenvalues not converged
     c_bands: 11 eigenvalues not converged
     c_bands: 11 eigenvalues not converged
     c_bands: 11 eigenvalues not converged
     c_bands: 13 eigenvalues not converged
     c_bands: 12 eigenvalues not converged
     c_bands: 10 eigenvalues not converged
     c_bands: 12 eigenvalues not converged
     c_bands: 10 eigenvalues not converged
     c_bands: 11 eigenvalues not converged
     c_bands: 11 eigenvalues not converged
     c_bands: 11 eigenvalues not converged
     c_bands: 12 eigenvalues not converged
     c_bands: 11 eigenvalues not converged
     c_bands: 11 eigenvalues not converged
     c_bands: 13 eigenvalues not converged
     c_bands: 13 eigenvalues not converged
     c_bands:  9 eigenvalues not converged
     c_bands: 10 eigenvalues not converged
     c_bands: 13 eigenvalues not converged
     c_bands:  9 eigenvalues not converged
     c_bands: 10 eigenvalues not converged
     c_bands: 11 eigenvalues not converged
     c_bands: 11 eigenvalues not converged
     c_bands: 10 eigenvalues not converged
     c_bands: 11 eigenvalues not converged
     c_bands:  8 eigenvalues not converged
     c_bands: 11 eigenvalues not converged
     c_bands:  9 eigenvalues not converged
     c_bands: 13 eigenvalues not converged
     c_bands:  8 eigenvalues not converged
     c_bands: 13 eigenvalues not converged
     c_bands: 10 eigenvalues not converged
     c_bands:  9 eigenvalues not converged
     c_bands: 12 eigenvalues not converged
     c_bands: 11 eigenvalues not converged
     c_bands:  9 eigenvalues not converged
     c_bands: 11 eigenvalues not converged
     c_bands: 12 eigenvalues not converged
     c_bands: 12 eigenvalues not converged
     c_bands: 13 eigenvalues not converged
     c_bands: 11 eigenvalues not converged
     c_bands: 11 eigenvalues not converged
     c_bands: 12 eigenvalues not converged
     c_bands: 10 eigenvalues not converged
     c_bands: 12 eigenvalues not converged
     c_bands: 12 eigenvalues not converged
     c_bands: 11 eigenvalues not converged
     c_bands: 12 eigenvalues not converged
     c_bands: 11 eigenvalues not converged
     c_bands: 12 eigenvalues not converged
     c_bands: 12 eigenvalues not converged
     c_bands: 10 eigenvalues not converged
     c_bands: 12 eigenvalues not converged
     c_bands: 11 eigenvalues not converged
     c_bands: 13 eigenvalues not converged
     c_bands: 11 eigenvalues not converged
     c_bands: 12 eigenvalues not converged
     c_bands: 10 eigenvalues not converged
     c_bands: 11 eigenvalues not converged
     c_bands: 13 eigenvalues not converged
     c_bands: 13 eigenvalues not converged
     c_bands: 11 eigenvalues not converged
     c_bands: 10 eigenvalues not converged
     c_bands: 11 eigenvalues not converged
     c_bands: 10 eigenvalues not converged
     c_bands: 10 eigenvalues not converged
     c_bands: 12 eigenvalues not converged
     c_bands: 11 eigenvalues not converged
     c_bands: 13 eigenvalues not converged
     c_bands: 11 eigenvalues not converged
     c_bands: 13 eigenvalues not converged
     c_bands: 11 eigenvalues not converged
     c_bands: 10 eigenvalues not converged
     c_bands: 13 eigenvalues not converged
     c_bands: 12 eigenvalues not converged
     c_bands: 10 eigenvalues not converged
     c_bands: 11 eigenvalues not converged
     c_bands: 11 eigenvalues not converged
     c_bands: 12 eigenvalues not converged
     c_bands: 10 eigenvalues not converged
     c_bands: 11 eigenvalues not converged
     c_bands: 12 eigenvalues not converged
     c_bands: 12 eigenvalues not converged
     c_bands: 13 eigenvalues not converged
     c_bands: 12 eigenvalues not converged
     c_bands: 10 eigenvalues not converged
     c_bands: 12 eigenvalues not converged
     c_bands: 12 eigenvalues not converged
     c_bands: 10 eigenvalues not converged
     c_bands: 11 eigenvalues not converged
     c_bands: 10 eigenvalues not converged
     c_bands: 11 eigenvalues not converged
     c_bands:  8 eigenvalues not converged
     c_bands: 10 eigenvalues not converged
     c_bands: 10 eigenvalues not converged
     c_bands: 12 eigenvalues not converged
     c_bands:  8 eigenvalues not converged
     c_bands: 11 eigenvalues not converged
     c_bands: 11 eigenvalues not converged
     c_bands: 12 eigenvalues not converged
     c_bands: 13 eigenvalues not converged
     c_bands: 11 eigenvalues not converged
     c_bands: 11 eigenvalues not converged
     c_bands: 13 eigenvalues not converged
     c_bands: 12 eigenvalues not converged
     c_bands: 11 eigenvalues not converged
     c_bands: 12 eigenvalues not converged
     c_bands: 11 eigenvalues not converged
     c_bands: 10 eigenvalues not converged
     c_bands: 11 eigenvalues not converged
     c_bands: 10 eigenvalues not converged
     c_bands: 10 eigenvalues not converged
     c_bands: 11 eigenvalues not converged
     c_bands: 12 eigenvalues not converged
     c_bands: 12 eigenvalues not converged
     c_bands: 11 eigenvalues not converged
     c_bands: 13 eigenvalues not converged
     c_bands: 13 eigenvalues not converged
     c_bands: 10 eigenvalues not converged
     c_bands: 12 eigenvalues not converged
     c_bands: 13 eigenvalues not converged
     c_bands: 12 eigenvalues not converged
     c_bands:  9 eigenvalues not converged
     c_bands: 12 eigenvalues not converged
     c_bands: 10 eigenvalues not converged
     c_bands: 12 eigenvalues not converged
     c_bands: 13 eigenvalues not converged
     c_bands: 11 eigenvalues not converged
     c_bands: 13 eigenvalues not converged
     c_bands: 10 eigenvalues not converged
     c_bands: 13 eigenvalues not converged
     c_bands:  8 eigenvalues not converged
     c_bands: 10 eigenvalues not converged
     c_bands: 13 eigenvalues not converged
     c_bands: 10 eigenvalues not converged
     c_bands: 10 eigenvalues not converged
     c_bands: 10 eigenvalues not converged
     c_bands: 11 eigenvalues not converged
     c_bands:  9 eigenvalues not converged
     c_bands:  9 eigenvalues not converged
     c_bands:  9 eigenvalues not converged
     c_bands: 11 eigenvalues not converged
     c_bands: 10 eigenvalues not converged
     c_bands: 10 eigenvalues not converged
     c_bands: 12 eigenvalues not converged
     c_bands: 13 eigenvalues not converged
     c_bands: 13 eigenvalues not converged
     c_bands: 11 eigenvalues not converged
     c_bands: 11 eigenvalues not converged
     c_bands: 12 eigenvalues not converged
     c_bands: 11 eigenvalues not converged
     c_bands: 12 eigenvalues not converged
     c_bands: 12 eigenvalues not converged
     c_bands: 11 eigenvalues not converged
     c_bands: 13 eigenvalues not converged
     c_bands: 12 eigenvalues not converged
     c_bands: 12 eigenvalues not converged
     c_bands: 12 eigenvalues not converged
     c_bands: 13 eigenvalues not converged
     c_bands: 11 eigenvalues not converged
     c_bands: 12 eigenvalues not converged
     c_bands: 12 eigenvalues not converged
     c_bands: 13 eigenvalues not converged
     c_bands:  9 eigenvalues not converged
     c_bands: 13 eigenvalues not converged
     c_bands: 13 eigenvalues not converged
     c_bands: 13 eigenvalues not converged
     c_bands: 13 eigenvalues not converged
     c_bands: 13 eigenvalues not converged
     c_bands: 11 eigenvalues not converged
     c_bands: 12 eigenvalues not converged
     c_bands: 11 eigenvalues not converged
     c_bands: 12 eigenvalues not converged
     c_bands: 11 eigenvalues not converged
     c_bands: 10 eigenvalues not converged

     ethr =  2.98E-12,  avg # of iterations = 78.6

     total cpu time spent up to now is    56251.5 secs

     End of band structure calculation

     Number of k-points >= 100: set verbosity='high' to print the bands.

     Writing all to output data dir ./test.save/ :
     XML data file, pseudopotentials, collected wavefunctions
 
     init_run     :      1.07s CPU      1.55s WALL (       1 calls)
     electrons    :  55903.50s CPU  56249.07s WALL (       1 calls)

     Called by init_run:
     wfcinit      :      0.00s CPU      0.00s WALL (       1 calls)
     potinit      :      0.06s CPU      0.41s WALL (       1 calls)
     hinit0       :      0.05s CPU      0.07s WALL (       1 calls)

     Called by electrons:
     c_bands      :  55903.50s CPU  56249.07s WALL (       1 calls)
     v_of_rho     :      0.03s CPU      0.05s WALL (       1 calls)
     newd         :      0.33s CPU      0.42s WALL (       1 calls)

     Called by c_bands:
     init_us_2    :      2.23s CPU      2.26s WALL (     221 calls)
     ccgdiagg     :  55533.05s CPU  55839.37s WALL (    1326 calls)
     wfcrot       :    361.72s CPU    364.89s WALL (    1326 calls)

     Called by *cgdiagg:
     h_psi        :  22460.27s CPU  22595.39s WALL ( 3933640 calls)
     s_psi        :  17802.31s CPU  17898.57s WALL ( 7865954 calls)

     Called by h_psi:
     h_psi:calbec :  10315.33s CPU  10377.48s WALL ( 3933640 calls)
     vloc_psi     :   3019.13s CPU   3045.42s WALL ( 3933640 calls)
     add_vuspsi   :   9075.73s CPU   9125.56s WALL ( 3933640 calls)
     hs_1psi      :  31077.01s CPU  31254.13s WALL ( 3932314 calls)
     s_1psi       :  18452.84s CPU  18545.14s WALL ( 3932314 calls)

     General routines
     calbec       :  19780.18s CPU  19895.46s WALL ( 7865954 calls)
     fft          :      0.02s CPU      0.03s WALL (      13 calls)
     ffts         :      0.00s CPU      0.00s WALL (       1 calls)
     fftw         :   1810.03s CPU   1826.03s WALL ( 8527628 calls)
     interpolate  :      0.00s CPU      0.01s WALL (       1 calls)
     davcio       :      0.11s CPU     36.47s WALL (     442 calls)
 
     Parallel routines
 
     PWSCF        :  55938.51s CPU  56315.63s WALL

 
   This run was terminated on:   8: 1:30  20Feb2026            

=------------------------------------------------------------------------------=
   JOB DONE.
=------------------------------------------------------------------------------=
