
     Program PWSCF v.7.3.1 starts on 19Feb2026 at  9:32: 7 

     This program is part of the open-source Quantum ESPRESSO suite
     for quantum simulation of materials; please cite
         "P. Giannozzi et al., J. Phys.:Condens. Matter 21 395502 (2009);
         "P. Giannozzi et al., J. Phys.:Condens. Matter 29 465901 (2017);
         "P. Giannozzi et al., J. Chem. Phys. 152 154105 (2020);
          URL http://www.quantum-espresso.org", 
     in publications or presentations arising from this work. More details at
     http://www.quantum-espresso.org/quote

     Parallel version (MPI & OpenMP), running on      64 processor cores
     Number of MPI processes:                64
     Threads/MPI process:                     1

     MPI processes distributed on     1 nodes
     481426 MiB available memory on the printing compute node when the environment starts
 
     Waiting for input...
     Reading input from standard input
Warning: card &IONS ignored
Warning: card / ignored
Warning: card &CELL ignored
Warning: card   PRESS = 0.0, ignored
Warning: card / ignored

     Current dimensions of program PWSCF are:
     Max number of different atomic species (ntypx) = 10
     Max number of k-points (npk) =  40000
     Max angular momentum in pseudopotentials (lmaxx) =  4

     IMPORTANT: XC functional enforced from input :
     Exchange-correlation= PBE
                           (   1   4   3   4   0   0   0)
     Any further DFT definition will be discarded
     Please, verify this is what you really want


     Atomic positions and unit cell read from directory:
     ./test.save/
 
 
     R & G space division:  proc/nbgrp/npool/nimage =      64
     Subspace diagonalization in iterative solution of the eigenvalue problem:
     one sub-group per band group will be used
     ELPA distributed-memory algorithm (size of sub-group:  3*  3 procs)

 
     Parallelization info
     --------------------
     sticks:   dense  smooth     PW     G-vecs:    dense   smooth      PW
     Min         180      90     24                33956    12002    1680
     Max         181      91     25                33969    12012    1689
     Sum       11557    5773   1555              2173495   768463  107785
 
     Using Slab Decomposition
 


     bravais-lattice index     =            4
     lattice parameter (alat)  =      22.8869  a.u.
     unit-cell volume          =   22488.0312 (a.u.)^3
     number of atoms/cell      =           49
     number of atomic types    =            8
     number of electrons       =       336.00
     number of Kohn-Sham states=          250
     kinetic-energy cutoff     =      40.0000  Ry
     charge density cutoff     =     320.0000  Ry
     Exchange-correlation= PBE
                           (   1   4   3   4   0   0   0)

     celldm(1)=  22.886890  celldm(2)=   0.000000  celldm(3)=   2.166010
     celldm(4)=   0.000000  celldm(5)=   0.000000  celldm(6)=   0.000000

     crystal axes: (cart. coord. in units of alat)
               a(1) = (   1.000000   0.000000   0.000000 )  
               a(2) = (  -0.500000   0.866025   0.000000 )  
               a(3) = (   0.000000   0.000000   2.166010 )  

     reciprocal axes: (cart. coord. in units 2 pi/alat)
               b(1) = (  1.000000  0.577350  0.000000 )  
               b(2) = (  0.000000  1.154701  0.000000 )  
               b(3) = (  0.000000  0.000000  0.461678 )  


     PseudoPot. # 1 for Cu read from file:
     ./cu_pbe_v1.2.uspp.F.UPF
     MD5 check sum: 6e991ff952a84172a2a52a1c1e996048
     Pseudo is Ultrasoft + core correction, Zval = 19.0
     Generated by new atomic code, or converted to UPF format
     Using radial grid of  867 points,  6 beta functions with: 
                l(1) =   0
                l(2) =   0
                l(3) =   1
                l(4) =   1
                l(5) =   2
                l(6) =   2
     Q(r) pseudized with  8 coefficients,  rinner =    1.150   1.150   1.150
                                                       1.150   1.150

     PseudoPot. # 2 for In read from file:
     ./in_pbe_v1.4.uspp.F.UPF
     MD5 check sum: 90777abd96fbb83f2e67db2a40c566b9
     Pseudo is Ultrasoft + core correction, Zval = 13.0
     Generated by new atomic code, or converted to UPF format
     Using radial grid of  889 points,  6 beta functions with: 
                l(1) =   0
                l(2) =   0
                l(3) =   1
                l(4) =   1
                l(5) =   2
                l(6) =   2
     Q(r) pseudized with  6 coefficients,  rinner =    1.400   1.400   1.400
                                                       1.400   1.400

     PseudoPot. # 3 for P  read from file:
     ./p_pbe_v1.5.uspp.F.UPF
     MD5 check sum: eb82b2c351da08c5f5f8709277dc7ee5
     Pseudo is Ultrasoft + core correction, Zval =  5.0
     Generated by new atomic code, or converted to UPF format
     Using radial grid of  903 points,  6 beta functions with: 
                l(1) =   0
                l(2) =   0
                l(3) =   1
                l(4) =   1
                l(5) =   2
                l(6) =   2
     Q(r) pseudized with  8 coefficients,  rinner =    1.300   1.300   1.300
                                                       1.300   1.300

     PseudoPot. # 4 for S  read from file:
     ./s_pbe_v1.4.uspp.F.UPF
     MD5 check sum: 88d86576ff6df21479756cfb9bdac1df
     Pseudo is Ultrasoft + core correction, Zval =  6.0
     Generated by new atomic code, or converted to UPF format
     Using radial grid of  907 points,  6 beta functions with: 
                l(1) =   0
                l(2) =   0
                l(3) =   1
                l(4) =   1
                l(5) =   2
                l(6) =   2
     Q(r) pseudized with  8 coefficients,  rinner =    1.300   1.300   1.300
                                                       1.300   1.300

     PseudoPot. # 5 for C  read from file:
     ./c_pbe_v1.2.uspp.F.UPF
     MD5 check sum: d1aef80898a10debaa0f26306b886e00
     Pseudo is Ultrasoft + core correction, Zval =  4.0
     Generated by new atomic code, or converted to UPF format
     Using radial grid of  721 points,  4 beta functions with: 
                l(1) =   0
                l(2) =   0
                l(3) =   1
                l(4) =   1
     Q(r) pseudized with  8 coefficients,  rinner =    1.100   1.100   1.100


     PseudoPot. # 6 for O  read from file:
     ./o_pbe_v1.2.uspp.F.UPF
     MD5 check sum: 734c27235a0248c51dbae37a1fbe46ec
     Pseudo is Ultrasoft + core correction, Zval =  6.0
     Generated by new atomic code, or converted to UPF format
     Using radial grid of  737 points,  5 beta functions with: 
                l(1) =   0
                l(2) =   0
                l(3) =   1
                l(4) =   1
                l(5) =   2
     Q(r) pseudized with  8 coefficients,  rinner =    0.900   0.900   0.900
                                                       0.900   0.900

     PseudoPot. # 7 for N  read from file:
     ./n_pbe_v1.2.uspp.F.UPF
     MD5 check sum: 95339753478d7afb44899504a8723017
     Pseudo is Ultrasoft + core correction, Zval =  5.0
     Generated by new atomic code, or converted to UPF format
     Using radial grid of  729 points,  4 beta functions with: 
                l(1) =   0
                l(2) =   0
                l(3) =   1
                l(4) =   1
     Q(r) pseudized with  8 coefficients,  rinner =    0.900   0.900   0.900


     PseudoPot. # 8 for H  read from file:
     ./h_pbe_v1.4.uspp.F.UPF
     MD5 check sum: 761ae9a214b05c3daf00ab9f6b793d6f
     Pseudo is Ultrasoft, Zval =  1.0
     Generated by new atomic code, or converted to UPF format
     Using radial grid of  615 points,  2 beta functions with: 
                l(1) =   0
                l(2) =   0
     Q(r) pseudized with  8 coefficients,  rinner =    0.700

     atomic species   valence    mass     pseudopotential
     Cu               19.00    63.54600     Cu( 1.00)
     In               13.00   114.81800     In( 1.00)
     P                 5.00    30.97400     P ( 1.00)
     S                 6.00    32.06500     S ( 1.00)
     C                 4.00    12.01100     C ( 1.00)
     O                 6.00    15.99900     O ( 1.00)
     N                 5.00    14.00670     N ( 1.00)
     H                 1.00     1.00780     H ( 1.00)

     No symmetry found



   Cartesian axes

     site n.     atom                  positions (alat units)
         1        Cu     tau(   1) = (   0.2605789   0.1376236   0.9443301  )
         2        Cu     tau(   2) = (   0.0095039   0.5705736   0.9436663  )
         3        Cu     tau(   3) = (   0.7599048   0.1378478   0.9439182  )
         4        Cu     tau(   4) = (   0.5101399   0.5708522   0.9435100  )
         5        In     tau(   5) = (   1.0111715  -0.0063874   1.0740552  )
         6        In     tau(   6) = (   0.7605840   0.4268787   1.0716279  )
         7        In     tau(   7) = (   0.5091198  -0.0069521   1.0740736  )
         8        In     tau(   8) = (   0.2612715   0.4265247   1.0715964  )
         9        P      tau(   9) = (   0.0104936   0.2819282   0.9630834  )
        10        P      tau(  10) = (  -0.2396607   0.7152470   0.9636761  )
        11        P      tau(  11) = (   0.5105277   0.2820182   0.9621266  )
        12        P      tau(  12) = (   0.2602918   0.7153020   0.9648393  )
        13        P      tau(  13) = (   0.0107410   0.2824722   1.1489092  )
        14        P      tau(  14) = (  -0.2389876   0.7154761   1.1496741  )
        15        P      tau(  15) = (   0.5110100   0.2821863   1.1479557  )
        16        P      tau(  16) = (   0.2605337   0.7151734   1.1507632  )
        17        S      tau(  17) = (  -0.0596262   0.1354089   0.9126321  )
        18        S      tau(  18) = (  -0.3095546   0.5691644   0.9112707  )
        19        S      tau(  19) = (   0.4407197   0.1355395   0.9112604  )
        20        S      tau(  20) = (   0.1901437   0.5691818   0.9128101  )
        21        S      tau(  21) = (   0.4217328   0.7281116   0.9129029  )
        22        S      tau(  22) = (   0.6721140   0.2949780   0.9105341  )
        23        S      tau(  23) = (  -0.0781683   0.7280632   0.9116949  )
        24        S      tau(  24) = (   0.1719731   0.2944846   0.9111612  )
        25        S      tau(  25) = (  -0.3316456   0.8488396   0.9122887  )
        26        S      tau(  26) = (  -0.0814621   0.4152295   0.9107509  )
        27        S      tau(  27) = (   0.1681200   0.8485808   0.9133290  )
        28        S      tau(  28) = (   0.4187655   0.4156989   0.9103290  )
        29        S      tau(  29) = (   0.3338133   0.8593782   1.1941717  )
        30        S      tau(  30) = (   0.5830219   0.4268207   1.1915866  )
        31        S      tau(  31) = (  -0.1665659   0.8590100   1.1951371  )
        32        S      tau(  32) = (   0.0833619   0.4273768   1.1914326  )
        33        S      tau(  33) = (   0.0995343   0.1478621   1.1938043  )
        34        S      tau(  34) = (  -0.1505562   0.5796069   1.1920369  )
        35        S      tau(  35) = (   0.5999463   0.1474275   1.1915630  )
        36        S      tau(  36) = (   0.3492070   0.5795582   1.1935788  )
        37        S      tau(  37) = (  -0.4004810   0.7056961   1.1931345  )
        38        S      tau(  38) = (  -0.1506582   0.2735965   1.1925885  )
        39        S      tau(  39) = (   0.0994410   0.7065023   1.1949628  )
        40        S      tau(  40) = (   0.3492319   0.2721088   1.1908235  )
        41        C      tau(  41) = (   0.2033664   0.1902803   1.4671327  )
        42        C      tau(  42) = (   0.0964508   0.1592580   1.5245436  )
        43        O      tau(  43) = (   0.2687107   0.1204809   1.4326901  )
        44        N      tau(  44) = (   0.2219821   0.3010319   1.4553616  )
        45        H      tau(  45) = (   0.1632093   0.3579432   1.4746230  )
        46        H      tau(  46) = (   0.2871579   0.3254147   1.4077065  )
        47        H      tau(  47) = (   0.1127283   0.0906667   1.5818060  )
        48        H      tau(  48) = (   0.0379898   0.1292573   1.4614372  )
        49        H      tau(  49) = (   0.0579219   0.2282674   1.5695808  )

     -------------------------------------------------
     Parameters for Dispersion (Grimme-D2) Correction:
     -------------------------------------------------
       atom      VdW radius       C_6     

        Cu         2.952        374.666
        In         3.160       1294.678
        P          3.222        271.980
        S          3.180        193.230
        C          2.744         60.710
        O          2.536         24.284
        N          2.640         42.670
        H          1.892          4.857

     number of k points=    96  Gaussian smearing, width (Ry)=  0.0100
                       cart. coord. in units 2pi/alat
        k(    1) = (   0.0625000   0.1082532  -0.2308392), wk =   0.0208333
        k(    2) = (   0.0625000   0.2525907  -0.2308392), wk =   0.0208333
        k(    3) = (   0.0625000   0.3969283  -0.2308392), wk =   0.0208333
        k(    4) = (   0.0625000   0.5412659  -0.2308392), wk =   0.0208333
        k(    5) = (   0.0625000  -0.4690971  -0.2308392), wk =   0.0208333
        k(    6) = (   0.0625000  -0.3247595  -0.2308392), wk =   0.0208333
        k(    7) = (   0.0625000  -0.1804220  -0.2308392), wk =   0.0208333
        k(    8) = (   0.0625000  -0.0360844  -0.2308392), wk =   0.0208333
        k(    9) = (   0.1875000   0.3247595  -0.2308392), wk =   0.0208333
        k(   10) = (   0.1875000   0.4690971  -0.2308392), wk =   0.0208333
        k(   11) = (   0.1875000   0.6134347  -0.2308392), wk =   0.0208333
        k(   12) = (   0.1875000  -0.3969283  -0.2308392), wk =   0.0208333
        k(   13) = (   0.1875000  -0.2525907  -0.2308392), wk =   0.0208333
        k(   14) = (   0.1875000  -0.1082532  -0.2308392), wk =   0.0208333
        k(   15) = (   0.3125000   0.5412659  -0.2308392), wk =   0.0208333
        k(   16) = (   0.3125000   0.6856034  -0.2308392), wk =   0.0208333
        k(   17) = (   0.3125000  -0.3247595  -0.2308392), wk =   0.0208333
        k(   18) = (   0.3125000  -0.1804220  -0.2308392), wk =   0.0208333
        k(   19) = (   0.4375000   0.7577722  -0.2308392), wk =   0.0208333
        k(   20) = (   0.4375000  -0.2525907  -0.2308392), wk =   0.0208333
        k(   21) = (  -0.0625000   0.1082532   0.2308392), wk =   0.0208333
        k(   22) = (   0.1250000   0.0000000  -0.2308392), wk =   0.0208333
        k(   23) = (  -0.0625000   0.2525907   0.2308392), wk =   0.0208333
        k(   24) = (  -0.1875000   0.1804220  -0.2308392), wk =   0.0208333
        k(   25) = (   0.2500000   0.0721688  -0.2308392), wk =   0.0208333
        k(   26) = (  -0.1875000  -0.1804220   0.2308392), wk =   0.0208333
        k(   27) = (   0.2500000  -0.0721688   0.2308392), wk =   0.0208333
        k(   28) = (  -0.0625000   0.3969283   0.2308392), wk =   0.0208333
        k(   29) = (  -0.3125000   0.2525907  -0.2308392), wk =   0.0208333
        k(   30) = (   0.3750000   0.1443376  -0.2308392), wk =   0.0208333
        k(   31) = (  -0.3125000  -0.2525907   0.2308392), wk =   0.0208333
        k(   32) = (   0.3750000  -0.1443376   0.2308392), wk =   0.0208333
        k(   33) = (  -0.0625000   0.5412659   0.2308392), wk =   0.0208333
        k(   34) = (  -0.4375000   0.3247595  -0.2308392), wk =   0.0208333
        k(   35) = (   0.5000000   0.2165064  -0.2308392), wk =   0.0208333
        k(   36) = (  -0.4375000  -0.3247595   0.2308392), wk =   0.0208333
        k(   37) = (   0.5000000  -0.2165064   0.2308392), wk =   0.0208333
        k(   38) = (  -0.0625000  -0.4690971   0.2308392), wk =   0.0208333
        k(   39) = (   0.4375000  -0.1804220  -0.2308392), wk =   0.0208333
        k(   40) = (  -0.3750000  -0.2886751  -0.2308392), wk =   0.0208333
        k(   41) = (   0.4375000   0.1804220   0.2308392), wk =   0.0208333
        k(   42) = (  -0.3750000   0.2886751   0.2308392), wk =   0.0208333
        k(   43) = (  -0.0625000  -0.3247595   0.2308392), wk =   0.0208333
        k(   44) = (   0.3125000  -0.1082532  -0.2308392), wk =   0.0208333
        k(   45) = (  -0.2500000  -0.2165064  -0.2308392), wk =   0.0208333
        k(   46) = (   0.3125000   0.1082532   0.2308392), wk =   0.0208333
        k(   47) = (  -0.2500000   0.2165064   0.2308392), wk =   0.0208333
        k(   48) = (  -0.0625000  -0.1804220   0.2308392), wk =   0.0208333
        k(   49) = (   0.1875000  -0.0360844  -0.2308392), wk =   0.0208333
        k(   50) = (  -0.1250000  -0.1443376  -0.2308392), wk =   0.0208333
        k(   51) = (   0.1875000   0.0360844   0.2308392), wk =   0.0208333
        k(   52) = (  -0.1250000   0.1443376   0.2308392), wk =   0.0208333
        k(   53) = (  -0.0625000  -0.0360844   0.2308392), wk =   0.0208333
        k(   54) = (   0.0000000  -0.0721688  -0.2308392), wk =   0.0208333
        k(   55) = (  -0.1875000   0.3247595   0.2308392), wk =   0.0208333
        k(   56) = (   0.3750000   0.0000000  -0.2308392), wk =   0.0208333
        k(   57) = (  -0.1875000   0.4690971   0.2308392), wk =   0.0208333
        k(   58) = (  -0.3125000   0.3969283  -0.2308392), wk =   0.0208333
        k(   59) = (   0.5000000   0.0721688  -0.2308392), wk =   0.0208333
        k(   60) = (  -0.3125000  -0.3969283   0.2308392), wk =   0.0208333
        k(   61) = (   0.5000000  -0.0721688   0.2308392), wk =   0.0208333
        k(   62) = (  -0.1875000   0.6134347   0.2308392), wk =   0.0208333
        k(   63) = (  -0.4375000   0.4690971  -0.2308392), wk =   0.0208333
        k(   64) = (   0.6250000   0.1443376  -0.2308392), wk =   0.0208333
        k(   65) = (  -0.4375000  -0.4690971   0.2308392), wk =   0.0208333
        k(   66) = (   0.6250000  -0.1443376   0.2308392), wk =   0.0208333
        k(   67) = (  -0.1875000  -0.3969283   0.2308392), wk =   0.0208333
        k(   68) = (   0.4375000  -0.0360844  -0.2308392), wk =   0.0208333
        k(   69) = (  -0.2500000  -0.3608439  -0.2308392), wk =   0.0208333
        k(   70) = (   0.4375000   0.0360844   0.2308392), wk =   0.0208333
        k(   71) = (  -0.2500000   0.3608439   0.2308392), wk =   0.0208333
        k(   72) = (  -0.1875000  -0.2525907   0.2308392), wk =   0.0208333
        k(   73) = (   0.3125000   0.0360844  -0.2308392), wk =   0.0208333
        k(   74) = (  -0.1250000  -0.2886751  -0.2308392), wk =   0.0208333
        k(   75) = (   0.3125000  -0.0360844   0.2308392), wk =   0.0208333
        k(   76) = (  -0.1250000   0.2886751   0.2308392), wk =   0.0208333
        k(   77) = (  -0.1875000  -0.1082532   0.2308392), wk =   0.0208333
        k(   78) = (   0.0000000  -0.2165064  -0.2308392), wk =   0.0208333
        k(   79) = (  -0.3125000   0.5412659   0.2308392), wk =   0.0208333
        k(   80) = (   0.6250000   0.0000000  -0.2308392), wk =   0.0208333
        k(   81) = (  -0.3125000   0.6856034   0.2308392), wk =   0.0208333
        k(   82) = (  -0.4375000   0.6134347  -0.2308392), wk =   0.0208333
        k(   83) = (   0.7500000   0.0721688  -0.2308392), wk =   0.0208333
        k(   84) = (  -0.4375000  -0.6134347   0.2308392), wk =   0.0208333
        k(   85) = (   0.7500000  -0.0721688   0.2308392), wk =   0.0208333
        k(   86) = (  -0.3125000  -0.3247595   0.2308392), wk =   0.0208333
        k(   87) = (   0.4375000   0.1082532  -0.2308392), wk =   0.0208333
        k(   88) = (  -0.1250000  -0.4330127  -0.2308392), wk =   0.0208333
        k(   89) = (   0.4375000  -0.1082532   0.2308392), wk =   0.0208333
        k(   90) = (  -0.1250000   0.4330127   0.2308392), wk =   0.0208333
        k(   91) = (  -0.3125000  -0.1804220   0.2308392), wk =   0.0208333
        k(   92) = (   0.0000000  -0.3608439  -0.2308392), wk =   0.0208333
        k(   93) = (  -0.4375000   0.7577722   0.2308392), wk =   0.0208333
        k(   94) = (   0.8750000   0.0000000  -0.2308392), wk =   0.0208333
        k(   95) = (  -0.4375000  -0.2525907   0.2308392), wk =   0.0208333
        k(   96) = (   0.0000000  -0.5051815  -0.2308392), wk =   0.0208333

     Dense  grid:  2173495 G-vectors     FFT dimensions: ( 135, 135, 288)

     Smooth grid:   768463 G-vectors     FFT dimensions: (  96,  96, 200)

     Estimated max dynamical RAM per process >     161.58 MB

     Estimated total dynamical RAM >      10.10 GB

     The potential is recalculated from file :
     ./test.save/charge-density


     negative rho (up, down):  3.687E-03 0.000E+00
     Starting wfcs are  237 randomized atomic wfcs +   13 random wfcs

     Band Structure Calculation
     CG style diagonalization
     c_bands: 11 eigenvalues not converged
     c_bands: 12 eigenvalues not converged
     c_bands: 10 eigenvalues not converged
     c_bands: 11 eigenvalues not converged
     c_bands: 12 eigenvalues not converged
     c_bands: 11 eigenvalues not converged
     c_bands: 10 eigenvalues not converged
     c_bands: 10 eigenvalues not converged
     c_bands: 11 eigenvalues not converged
     c_bands: 11 eigenvalues not converged
     c_bands: 14 eigenvalues not converged
     c_bands: 11 eigenvalues not converged
     c_bands: 12 eigenvalues not converged
     c_bands: 11 eigenvalues not converged
     c_bands: 12 eigenvalues not converged
     c_bands: 13 eigenvalues not converged
     c_bands:  9 eigenvalues not converged
     c_bands: 10 eigenvalues not converged
     c_bands: 10 eigenvalues not converged
     c_bands: 11 eigenvalues not converged
     c_bands: 11 eigenvalues not converged
     c_bands: 11 eigenvalues not converged
     c_bands: 12 eigenvalues not converged
     c_bands:  8 eigenvalues not converged
     c_bands: 11 eigenvalues not converged
     c_bands: 11 eigenvalues not converged
     c_bands: 13 eigenvalues not converged
     c_bands: 10 eigenvalues not converged
     c_bands: 11 eigenvalues not converged
     c_bands: 11 eigenvalues not converged
     c_bands: 12 eigenvalues not converged
     c_bands: 11 eigenvalues not converged
     c_bands: 12 eigenvalues not converged
     c_bands: 11 eigenvalues not converged
     c_bands: 11 eigenvalues not converged
     c_bands: 11 eigenvalues not converged
     c_bands: 11 eigenvalues not converged
     c_bands: 11 eigenvalues not converged
     c_bands: 13 eigenvalues not converged
     c_bands: 13 eigenvalues not converged
     c_bands: 10 eigenvalues not converged
     c_bands: 10 eigenvalues not converged
     c_bands: 12 eigenvalues not converged
     c_bands: 12 eigenvalues not converged
     c_bands: 11 eigenvalues not converged
     c_bands: 11 eigenvalues not converged
     c_bands: 12 eigenvalues not converged
     c_bands: 10 eigenvalues not converged
     c_bands: 11 eigenvalues not converged
     c_bands: 14 eigenvalues not converged
     c_bands: 11 eigenvalues not converged
     c_bands: 12 eigenvalues not converged
     c_bands: 11 eigenvalues not converged
     c_bands: 10 eigenvalues not converged
     c_bands: 12 eigenvalues not converged
     c_bands: 12 eigenvalues not converged
     c_bands: 11 eigenvalues not converged
     c_bands: 13 eigenvalues not converged
     c_bands: 10 eigenvalues not converged
     c_bands: 12 eigenvalues not converged
     c_bands: 13 eigenvalues not converged
     c_bands: 13 eigenvalues not converged
     c_bands: 12 eigenvalues not converged
     c_bands: 10 eigenvalues not converged
     c_bands: 11 eigenvalues not converged
     c_bands: 11 eigenvalues not converged
     c_bands: 10 eigenvalues not converged
     c_bands: 14 eigenvalues not converged
     c_bands: 11 eigenvalues not converged
     c_bands: 12 eigenvalues not converged
     c_bands: 13 eigenvalues not converged
     c_bands: 11 eigenvalues not converged
     c_bands: 13 eigenvalues not converged
     c_bands: 13 eigenvalues not converged
     c_bands: 13 eigenvalues not converged
     c_bands: 11 eigenvalues not converged
     c_bands: 11 eigenvalues not converged
     c_bands: 11 eigenvalues not converged
     c_bands: 11 eigenvalues not converged
     c_bands: 12 eigenvalues not converged
     c_bands: 10 eigenvalues not converged
     c_bands: 10 eigenvalues not converged
     c_bands: 11 eigenvalues not converged
     c_bands: 11 eigenvalues not converged
     c_bands: 10 eigenvalues not converged
     c_bands: 12 eigenvalues not converged
     c_bands:  9 eigenvalues not converged
     c_bands: 10 eigenvalues not converged
     c_bands: 11 eigenvalues not converged
     c_bands: 11 eigenvalues not converged
     c_bands: 11 eigenvalues not converged
     c_bands: 10 eigenvalues not converged
     c_bands: 12 eigenvalues not converged
     c_bands: 10 eigenvalues not converged
     c_bands: 11 eigenvalues not converged
     c_bands: 11 eigenvalues not converged

     ethr =  2.98E-12,  avg # of iterations = 78.7

     total cpu time spent up to now is    24620.4 secs

     End of band structure calculation

          k = 0.0625 0.1083-0.2308 ( 96006 PWs)   bands (ev):

  -113.9629-113.9593-113.9575-113.9532 -71.4353 -71.4340 -71.4320 -71.4305
   -71.4302 -71.4292 -71.4253 -71.4247 -71.2642 -71.2604 -71.2578 -71.2545
   -22.5476 -19.3549 -18.5166 -18.3638 -18.3600 -18.3441 -17.5503 -17.5461
   -17.5399 -17.5048 -17.1189 -17.1084 -17.0813 -17.0725 -17.0678 -16.8624
   -16.8602 -16.8531 -16.8321 -16.8315 -16.8290 -16.8236 -16.8226 -16.8149
   -16.8062 -16.8054 -16.7933 -16.7240 -16.7175 -16.7058 -16.0326 -16.0219
   -16.0152 -15.5921 -15.5817 -15.5777 -15.4345 -15.4241 -15.3076 -15.2906
   -15.2818 -15.0756 -14.9539 -14.9453 -14.9425 -14.8335 -14.8276 -12.7933
   -12.1770 -12.1665 -12.1478 -11.4092 -11.0080 -10.5063 -10.5023 -10.4703
   -10.1110  -9.3898  -9.1277  -9.1249  -9.1076  -8.4446  -8.4370  -8.4235
    -8.3681  -8.3443  -8.3222  -8.1323  -8.1176  -8.1091  -7.8676  -7.8423
    -7.8341  -7.7869  -7.7661  -7.7265  -7.2318  -7.1984  -7.1881  -7.0463
    -7.0400  -7.0193  -7.0174  -6.5847  -6.4826  -6.2293  -6.2249  -6.2208
    -5.9645  -5.9611  -5.9530  -5.9007  -5.7350  -5.6569  -5.6518  -5.6427
    -5.6076  -5.5628  -5.5410  -5.4347  -5.4287  -5.4218  -5.2277  -5.2215
    -5.2050  -5.1866  -5.1808  -4.9436  -4.9370  -4.9286  -4.8010  -4.7984
    -4.7862  -4.5962  -4.5414  -4.5331  -4.5225  -4.5027  -4.4636  -4.4540
    -4.4379  -4.4215  -4.0931  -4.0720  -4.0599  -3.9099  -3.9085  -3.9008
    -3.7956  -3.7374  -3.7147  -3.6454  -3.6392  -3.6283  -3.5965  -3.5810
    -3.5700  -3.5223  -3.5083  -3.4966  -3.4162  -3.3944  -3.3466  -3.1923
    -3.1753  -3.1666  -3.0153  -3.0047  -2.9719  -2.8116  -2.7702  -2.6157
    -1.0008  -0.6095  -0.5857  -0.5811  -0.0330   0.2182   0.2565   0.2693
     0.3210   0.3359   0.3446   0.5404   0.5587   0.5815   0.7457   0.7590
     0.7697   0.7724   0.7773   1.0596   1.1958   1.2165   1.2310   1.2958
     1.5410   1.5567   1.5692   1.9381   2.0175   2.0723   2.0827   2.0982
     2.1115   2.3553   2.3849   2.4083   2.4273   2.5355   2.7368   2.7474
     2.7650   2.7728   2.8082   2.8140   2.9195   2.9438   2.9620   2.9869
     3.1848   3.2321   3.2511   3.3136   3.4829   3.5310   3.5769   3.6136
     3.6589   3.7165   3.7936   3.8352   3.8587   3.9237   3.9548   3.9842
     3.9997   4.0351   4.0619   4.0931   4.1299   4.1607   4.2135   4.2318
     4.2571   4.2666   4.3156   4.3428   4.3615   4.5002   4.5214   4.5410
     4.5728   4.6546

          k = 0.0625 0.2526-0.2308 ( 96096 PWs)   bands (ev):

  -113.9629-113.9593-113.9575-113.9532 -71.4353 -71.4340 -71.4320 -71.4305
   -71.4302 -71.4292 -71.4253 -71.4247 -71.2642 -71.2604 -71.2578 -71.2545
   -22.5476 -19.3549 -18.5026 -18.3761 -18.3639 -18.3451 -17.5474 -17.5440
   -17.5368 -17.5112 -17.1176 -17.0946 -17.0865 -17.0775 -17.0767 -16.8760
   -16.8572 -16.8459 -16.8320 -16.8310 -16.8284 -16.8240 -16.8222 -16.8157
   -16.8073 -16.8056 -16.7922 -16.7403 -16.7198 -16.6971 -16.0169 -15.9930
   -15.9590 -15.6332 -15.5979 -15.5715 -15.4905 -15.4413 -15.2975 -15.2710
   -15.2366 -15.0755 -14.9656 -14.9487 -14.9369 -14.8755 -14.8377 -12.7254
   -12.2255 -12.1736 -12.1304 -11.4090 -10.9630 -10.5545 -10.4979 -10.4443
   -10.1112  -9.3652  -9.1472  -9.1038  -9.0648  -8.4953  -8.4902  -8.4211
    -8.4193  -8.3323  -8.2937  -8.1942  -8.1283  -8.1182  -7.9181  -7.8973
    -7.8755  -7.8512  -7.7797  -7.6676  -7.2938  -7.2185  -7.2042  -6.9807
    -6.9423  -6.9238  -6.9131  -6.5855  -6.4825  -6.1901  -6.1787  -6.1686
    -5.9843  -5.9497  -5.9440  -5.8708  -5.7371  -5.6597  -5.6417  -5.6351
    -5.6312  -5.5756  -5.5114  -5.4421  -5.4365  -5.4230  -5.2424  -5.2398
    -5.2175  -5.2074  -5.2008  -4.9768  -4.9741  -4.9456  -4.8113  -4.8024
    -4.7858  -4.6341  -4.5400  -4.5284  -4.4957  -4.4751  -4.4188  -4.4074
    -4.3939  -4.3673  -4.0800  -4.0550  -4.0446  -3.8893  -3.8804  -3.8530
    -3.8497  -3.7494  -3.6919  -3.6682  -3.6416  -3.6220  -3.6199  -3.5890
    -3.5817  -3.5296  -3.5101  -3.4759  -3.4662  -3.4326  -3.3522  -3.2277
    -3.1793  -3.1736  -3.0964  -3.0211  -2.9602  -2.9418  -2.8249  -2.6154
    -0.8575  -0.6462  -0.5913  -0.5410   0.0617   0.1345   0.2164   0.2721
     0.3305   0.4150   0.4670   0.5040   0.5764   0.6356   0.7090   0.7293
     0.7652   0.7770   0.7834   1.0693   1.1271   1.1592   1.2353   1.2852
     1.5344   1.5598   1.6043   1.8841   1.9884   2.0226   2.0345   2.0455
     2.1747   2.3661   2.3953   2.4209   2.4621   2.5328   2.6921   2.7204
     2.7448   2.7632   2.8323   2.8770   2.9171   2.9566   3.0065   3.0274
     3.1353   3.2308   3.2911   3.3122   3.4277   3.4789   3.5701   3.6001
     3.6383   3.6906   3.7612   3.8006   3.8638   3.9199   3.9706   3.9858
     4.0141   4.0372   4.0809   4.1355   4.1540   4.1970   4.2282   4.2716
     4.2800   4.3130   4.3593   4.4144   4.4338   4.5060   4.5577   4.6109
     4.6715   4.7281

          k = 0.0625 0.3969-0.2308 ( 96092 PWs)   bands (ev):

  -113.9629-113.9593-113.9575-113.9532 -71.4353 -71.4340 -71.4320 -71.4305
   -71.4302 -71.4292 -71.4253 -71.4247 -71.2642 -71.2604 -71.2578 -71.2545
   -22.5476 -19.3549 -18.4792 -18.4011 -18.3662 -18.3450 -17.5438 -17.5406
   -17.5332 -17.5192 -17.1153 -17.1088 -17.0990 -17.0869 -17.0337 -16.9061
   -16.8530 -16.8403 -16.8318 -16.8300 -16.8270 -16.8243 -16.8224 -16.8166
   -16.8085 -16.8057 -16.7899 -16.7622 -16.7186 -16.6870 -15.9909 -15.9586
   -15.8658 -15.6815 -15.6321 -15.5821 -15.5500 -15.4685 -15.2842 -15.2508
   -15.1630 -15.0752 -14.9824 -14.9605 -14.9435 -14.9167 -14.8546 -12.6190
   -12.3151 -12.1730 -12.1134 -11.4088 -10.8875 -10.6372 -10.4869 -10.4157
   -10.1113  -9.3233  -9.1859  -9.0679  -9.0087  -8.5460  -8.5419  -8.4873
    -8.4495  -8.3326  -8.2334  -8.2260  -8.1388  -8.1154  -8.0098  -7.9861
    -7.9254  -7.9141  -7.7868  -7.5694  -7.3293  -7.2706  -7.2363  -6.9163
    -6.8812  -6.7966  -6.7863  -6.5866  -6.4822  -6.1480  -6.1095  -6.0819
    -6.0024  -5.9537  -5.9088  -5.8580  -5.7478  -5.7067  -5.6587  -5.6147
    -5.6037  -5.5673  -5.4821  -5.4595  -5.4521  -5.4328  -5.3014  -5.2448
    -5.2372  -5.1994  -5.1947  -5.0348  -5.0321  -4.9999  -4.7976  -4.7829
    -4.7613  -4.6643  -4.5236  -4.5106  -4.4536  -4.4417  -4.3799  -4.3696
    -4.3501  -4.3231  -4.0856  -4.0707  -4.0484  -3.9920  -3.8424  -3.8352
    -3.7800  -3.7518  -3.7254  -3.6860  -3.6472  -3.6287  -3.6079  -3.6020
    -3.5799  -3.5611  -3.4967  -3.4624  -3.4522  -3.4186  -3.3527  -3.2681
    -3.2244  -3.1875  -3.1478  -3.1269  -3.0185  -2.9221  -2.9156  -2.6154
    -0.6959  -0.6783  -0.6163  -0.5145   0.0492   0.1411   0.1649   0.2706
     0.2970   0.4472   0.5066   0.6034   0.6099   0.6890   0.7044   0.7360
     0.7576   0.7808   0.8461   1.0377   1.0949   1.1010   1.2324   1.2502
     1.5284   1.5797   1.6683   1.8394   1.9450   1.9595   1.9796   2.0579
     2.2288   2.3047   2.3463   2.4115   2.4688   2.5194   2.7133   2.7356
     2.7776   2.7982   2.8075   2.9311   2.9652   2.9811   3.0404   3.0868
     3.1274   3.1697   3.1938   3.2968   3.4047   3.4812   3.5221   3.5514
     3.6011   3.6537   3.7084   3.7991   3.8293   3.8774   3.9546   4.0166
     4.0478   4.0858   4.1169   4.1376   4.1788   4.2268   4.2674   4.3236
     4.3759   4.3852   4.4388   4.4682   4.5432   4.5783   4.6426   4.6701
     4.7205   4.7516

          k = 0.0625 0.5413-0.2308 ( 96066 PWs)   bands (ev):

  -113.9629-113.9593-113.9575-113.9532 -71.4353 -71.4340 -71.4320 -71.4305
   -71.4302 -71.4292 -71.4253 -71.4247 -71.2642 -71.2604 -71.2578 -71.2545
   -22.5476 -19.3549 -18.4510 -18.4306 -18.3673 -18.3448 -17.5410 -17.5380
   -17.5323 -17.5237 -17.1182 -17.1113 -17.1067 -17.0933 -16.9809 -16.9519
   -16.8511 -16.8379 -16.8318 -16.8292 -16.8258 -16.8247 -16.8229 -16.8171
   -16.8091 -16.8057 -16.7868 -16.7749 -16.7177 -16.6813 -15.9730 -15.9340
   -15.7529 -15.7106 -15.6937 -15.6589 -15.5199 -15.5007 -15.2771 -15.2369
   -15.0886 -15.0651 -15.0327 -14.9888 -14.9591 -14.9046 -14.8705 -12.4946
   -12.4305 -12.1716 -12.1045 -11.4086 -10.7919 -10.7372 -10.4795 -10.4003
   -10.1112  -9.2702  -9.2379  -9.0444  -8.9685  -8.5682  -8.5512  -8.5415
    -8.5027  -8.3330  -8.1862  -8.1721  -8.1540  -8.1003  -8.0892  -8.0649
    -7.9622  -7.9490  -7.7890  -7.4475  -7.3829  -7.3405  -7.2463  -6.8724
    -6.8576  -6.7269  -6.7155  -6.5875  -6.4818  -6.1232  -6.0877  -5.9981
    -5.9695  -5.9632  -5.9103  -5.8423  -5.7932  -5.7558  -5.6404  -5.6137
    -5.5748  -5.5525  -5.4800  -5.4728  -5.4580  -5.4379  -5.3255  -5.2973
    -5.2143  -5.1870  -5.1418  -5.1065  -5.0687  -5.0482  -4.7843  -4.7658
    -4.7245  -4.6968  -4.4957  -4.4775  -4.4480  -4.4348  -4.3581  -4.3472
    -4.3087  -4.2909  -4.1396  -4.1192  -4.0837  -4.0544  -3.7941  -3.7874
    -3.7651  -3.7585  -3.6919  -3.6831  -3.6748  -3.6470  -3.6286  -3.6209
    -3.5944  -3.5397  -3.4623  -3.4360  -3.4326  -3.4079  -3.3508  -3.3020
    -3.2565  -3.2414  -3.2148  -3.0760  -3.0434  -3.0090  -2.9070  -2.6155
    -0.6919  -0.6363  -0.5768  -0.5396   0.0023   0.0915   0.2328   0.2502
     0.2724   0.4156   0.5476   0.6237   0.6723   0.6995   0.7104   0.7247
     0.7766   0.8151   0.9652   0.9696   1.0708   1.0912   1.1935   1.2412
     1.5084   1.6108   1.7473   1.7903   1.9324   1.9592   1.9735   2.0192
     2.2540   2.2600   2.2934   2.3581   2.4777   2.5207   2.7411   2.7735
     2.7926   2.8358   2.8579   2.9289   2.9945   3.0169   3.0464   3.0579
     3.0799   3.2019   3.2285   3.2556   3.2993   3.3728   3.4956   3.5936
     3.6254   3.6858   3.7078   3.7325   3.8032   3.8665   3.9037   4.0033
     4.0315   4.0582   4.1301   4.1561   4.2285   4.2963   4.3355   4.3836
     4.4195   4.4719   4.5114   4.5416   4.5621   4.5933   4.6082   4.6781
     4.7166   4.7777

          k = 0.0625-0.4691-0.2308 ( 96096 PWs)   bands (ev):

  -113.9629-113.9593-113.9575-113.9532 -71.4353 -71.4340 -71.4320 -71.4305
   -71.4302 -71.4292 -71.4253 -71.4247 -71.2642 -71.2604 -71.2578 -71.2545
   -22.5476 -19.3549 -18.4652 -18.4160 -18.3670 -18.3449 -17.5415 -17.5400
   -17.5318 -17.5223 -17.1158 -17.1121 -17.1035 -17.0914 -17.0078 -16.9270
   -16.8523 -16.8382 -16.8319 -16.8294 -16.8262 -16.8251 -16.8223 -16.8170
   -16.8088 -16.8058 -16.7883 -16.7701 -16.7183 -16.6830 -15.9818 -15.9401
   -15.8124 -15.6955 -15.6554 -15.6353 -15.5327 -15.4855 -15.2817 -15.2379
   -15.1244 -15.0753 -14.9930 -14.9835 -14.9558 -14.9110 -14.8634 -12.5577
   -12.3706 -12.1722 -12.1076 -11.4087 -10.8411 -10.6865 -10.4818 -10.4061
   -10.1111  -9.2974  -9.2107  -9.0553  -8.9811  -8.5603  -8.5395  -8.5156
    -8.5062  -8.3328  -8.2032  -8.1668  -8.1494  -8.1348  -8.0682  -8.0197
    -7.9484  -7.9344  -7.7889  -7.5108  -7.3385  -7.3194  -7.2488  -6.8856
    -6.8536  -6.7580  -6.7442  -6.5873  -6.4820  -6.1246  -6.1040  -6.0219
    -5.9877  -5.9835  -5.8773  -5.8644  -5.7559  -5.7481  -5.6361  -5.6249
    -5.5793  -5.5716  -5.4835  -5.4587  -5.4522  -5.4330  -5.3203  -5.2945
    -5.2098  -5.1895  -5.1794  -5.0577  -5.0550  -5.0379  -4.7851  -4.7797
    -4.7492  -4.6712  -4.4947  -4.4886  -4.4565  -4.4440  -4.3689  -4.3514
    -4.3257  -4.3085  -4.1071  -4.0831  -4.0704  -4.0513  -3.8210  -3.7847
    -3.7811  -3.7602  -3.7364  -3.6605  -3.6564  -3.6363  -3.6320  -3.6068
    -3.5790  -3.5315  -3.4956  -3.4748  -3.4458  -3.3973  -3.3311  -3.2733
    -3.2407  -3.2120  -3.1999  -3.1582  -3.0043  -2.9665  -2.9145  -2.6156
    -0.6843  -0.6339  -0.6277  -0.5189   0.0234   0.1005   0.2003   0.2727
     0.2972   0.4037   0.5537   0.5960   0.6701   0.6809   0.7142   0.7183
     0.7394   0.8197   0.9581   0.9780   1.0556   1.1071   1.2031   1.2593
     1.5038   1.6168   1.7096   1.8156   1.9388   1.9562   1.9678   2.0306
     2.2659   2.2806   2.3041   2.3633   2.4721   2.5156   2.7307   2.7610
     2.7749   2.8309   2.8734   2.9250   2.9621   3.0038   3.0321   3.0434
     3.1467   3.1802   3.2194   3.2991   3.3252   3.4027   3.5207   3.5460
     3.5765   3.6825   3.7119   3.7216   3.8341   3.8851   3.9551   4.0168
     4.0216   4.0674   4.1188   4.1364   4.2408   4.2702   4.3381   4.3758
     4.3926   4.4420   4.4661   4.5310   4.5557   4.5762   4.6127   4.6792
     4.7181   4.8285

          k = 0.0625-0.3248-0.2308 ( 96052 PWs)   bands (ev):

  -113.9629-113.9593-113.9575-113.9532 -71.4353 -71.4340 -71.4320 -71.4305
   -71.4302 -71.4292 -71.4253 -71.4247 -71.2642 -71.2604 -71.2578 -71.2545
   -22.5476 -19.3549 -18.4919 -18.3874 -18.3653 -18.3451 -17.5450 -17.5432
   -17.5344 -17.5154 -17.1161 -17.1026 -17.0913 -17.0835 -17.0577 -16.8880
   -16.8560 -16.8419 -16.8320 -16.8305 -16.8275 -16.8248 -16.8219 -16.8162
   -16.8079 -16.8056 -16.7912 -16.7515 -16.7199 -16.6915 -16.0065 -15.9720
   -15.9177 -15.6530 -15.6230 -15.5584 -15.5325 -15.4540 -15.2937 -15.2539
   -15.2054 -15.0758 -14.9735 -14.9548 -14.9283 -14.9076 -14.8443 -12.6758
   -12.2661 -12.1739 -12.1212 -11.4089 -10.9285 -10.5927 -10.4915 -10.4304
   -10.1111  -9.3462  -9.1635  -9.0887  -9.0353  -8.5335  -8.4854  -8.4628
    -8.4534  -8.3322  -8.2664  -8.1751  -8.1648  -8.1203  -7.9644  -7.9400
    -7.8970  -7.8821  -7.7856  -7.6241  -7.3128  -7.2427  -7.2230  -6.9343
    -6.8924  -6.8733  -6.8543  -6.5861  -6.4826  -6.1590  -6.1473  -6.1361
    -5.9835  -5.9754  -5.9140  -5.8610  -5.7400  -5.6672  -5.6488  -5.6399
    -5.6169  -5.5789  -5.4914  -5.4564  -5.4378  -5.4232  -5.2725  -5.2567
    -5.2280  -5.2086  -5.1874  -5.0152  -4.9811  -4.9787  -4.8103  -4.7956
    -4.7769  -4.6437  -4.5381  -4.5009  -4.4806  -4.4685  -4.4089  -4.3748
    -4.3706  -4.3471  -4.0774  -4.0532  -4.0470  -3.9160  -3.8728  -3.8372
    -3.8324  -3.7511  -3.7281  -3.6505  -3.6437  -3.6387  -3.6213  -3.5920
    -3.5652  -3.5543  -3.5034  -3.4738  -3.4598  -3.4387  -3.3431  -3.2231
    -3.2174  -3.1755  -3.1508  -3.0513  -3.0102  -2.9339  -2.8638  -2.6156
    -0.7739  -0.6600  -0.6083  -0.5215   0.0978   0.1144   0.1607   0.2870
     0.3366   0.4131   0.5205   0.5548   0.5593   0.6678   0.6873   0.7166
     0.7512   0.7962   0.8295   1.0588   1.0726   1.1683   1.2141   1.2798
     1.5154   1.5889   1.6300   1.8636   1.9616   1.9875   2.0018   2.0466
     2.2131   2.3576   2.3790   2.3985   2.4639   2.5210   2.6936   2.7236
     2.7576   2.7724   2.8490   2.9127   2.9289   2.9629   3.0168   3.0380
     3.1380   3.2369   3.2796   3.3093   3.4035   3.4200   3.5374   3.5716
     3.6079   3.6733   3.7320   3.7764   3.8574   3.9195   3.9753   4.0107
     4.0399   4.0562   4.0952   4.1537   4.1861   4.2206   4.2513   4.2681
     4.3309   4.3629   4.4002   4.4655   4.4969   4.5184   4.6012   4.6251
     4.6989   4.7618

          k = 0.0625-0.1804-0.2308 ( 96040 PWs)   bands (ev):

  -113.9629-113.9593-113.9575-113.9532 -71.4353 -71.4340 -71.4320 -71.4305
   -71.4302 -71.4292 -71.4253 -71.4247 -71.2642 -71.2604 -71.2578 -71.2545
   -22.5476 -19.3549 -18.5109 -18.3671 -18.3632 -18.3447 -17.5488 -17.5456
   -17.5383 -17.5076 -17.1180 -17.0975 -17.0874 -17.0760 -17.0727 -16.8666
   -16.8601 -16.8492 -16.8322 -16.8312 -16.8285 -16.8244 -16.8220 -16.8153
   -16.8068 -16.8054 -16.7928 -16.7289 -16.7208 -16.7020 -16.0269 -16.0065
   -15.9947 -15.6089 -15.5899 -15.5748 -15.4580 -15.4306 -15.3043 -15.2761
   -15.2678 -15.0757 -14.9590 -14.9472 -14.9392 -14.8541 -14.8289 -12.7653
   -12.1939 -12.1731 -12.1393 -11.4091 -10.9897 -10.5256 -10.4992 -10.4607
   -10.1109  -9.3799  -9.1337  -9.1181  -9.0896  -8.4745  -8.4485  -8.4268
    -8.3915  -8.3339  -8.3159  -8.1482  -8.1380  -8.1091  -7.8857  -7.8653
    -7.8520  -7.8127  -7.7752  -7.7053  -7.2635  -7.2181  -7.1826  -7.0032
    -6.9952  -6.9882  -6.9706  -6.5849  -6.4827  -6.2112  -6.2074  -6.1996
    -5.9706  -5.9645  -5.9437  -5.8875  -5.7352  -5.6555  -5.6461  -5.6430
    -5.6173  -5.5699  -5.5291  -5.4376  -5.4306  -5.4203  -5.2372  -5.2243
    -5.2122  -5.1979  -5.1896  -4.9634  -4.9406  -4.9338  -4.8124  -4.8011
    -4.7893  -4.6151  -4.5476  -4.5223  -4.5183  -4.4892  -4.4503  -4.4291
    -4.4111  -4.3967  -4.0847  -4.0600  -4.0550  -3.9032  -3.8938  -3.8833
    -3.8149  -3.7447  -3.6940  -3.6567  -3.6471  -3.6268  -3.6034  -3.5905
    -3.5739  -3.5189  -3.5003  -3.4826  -3.4665  -3.4058  -3.3520  -3.1980
    -3.1890  -3.1683  -3.0472  -3.0133  -2.9600  -2.8775  -2.7916  -2.6158
    -0.9369  -0.6263  -0.5857  -0.5629   0.0094   0.1827   0.2292   0.2799
     0.3329   0.3678   0.3980   0.5267   0.5658   0.5992   0.7212   0.7475
     0.7648   0.7757   0.7831   1.0614   1.1601   1.2135   1.2173   1.2927
     1.5305   1.5609   1.5848   1.9136   2.0195   2.0355   2.0560   2.0739
     2.1394   2.3679   2.3963   2.4167   2.4513   2.5297   2.7169   2.7311
     2.7469   2.7706   2.8202   2.8397   2.9224   2.9479   2.9722   2.9936
     3.1993   3.2446   3.2771   3.3135   3.4495   3.4760   3.5391   3.5971
     3.6429   3.7254   3.7954   3.8272   3.8863   3.9174   3.9649   3.9946
     4.0120   4.0184   4.0664   4.0953   4.1454   4.1731   4.2401   4.2587
     4.2794   4.2946   4.3182   4.3541   4.3877   4.4726   4.5277   4.5879
     4.6404   4.7130

          k = 0.0625-0.0361-0.2308 ( 95996 PWs)   bands (ev):

  -113.9629-113.9593-113.9575-113.9532 -71.4353 -71.4340 -71.4320 -71.4305
   -71.4302 -71.4292 -71.4253 -71.4247 -71.2642 -71.2604 -71.2578 -71.2545
   -22.5476 -19.3549 -18.5195 -18.3622 -18.3587 -18.3434 -17.5510 -17.5466
   -17.5405 -17.5033 -17.1178 -17.1157 -17.0785 -17.0699 -17.0652 -16.8615
   -16.8589 -16.8555 -16.8320 -16.8317 -16.8290 -16.8239 -16.8225 -16.8148
   -16.8061 -16.8051 -16.7935 -16.7208 -16.7175 -16.7065 -16.0350 -16.0304
   -16.0258 -15.5827 -15.5814 -15.5755 -15.4249 -15.4184 -15.3103 -15.2964
   -15.2898 -15.0756 -14.9519 -14.9471 -14.9405 -14.8288 -14.8212 -12.8078
   -12.1684 -12.1655 -12.1499 -11.4093 -11.0172 -10.5039 -10.4954 -10.4767
   -10.1109  -9.3948  -9.1283  -9.1225  -9.1195  -8.4330  -8.4265  -8.4210
    -8.3603  -8.3458  -8.3256  -8.1170  -8.1111  -8.1081  -7.8615  -7.8282
    -7.8245  -7.7710  -7.7546  -7.7448  -7.2053  -7.1972  -7.1818  -7.0739
    -7.0591  -7.0506  -7.0409  -6.5845  -6.4826  -6.2376  -6.2342  -6.2322
    -5.9653  -5.9581  -5.9556  -5.9091  -5.7349  -5.6581  -5.6514  -5.6447
    -5.6023  -5.5573  -5.5492  -5.4324  -5.4290  -5.4215  -5.2287  -5.2211
    -5.2010  -5.1776  -5.1702  -4.9367  -4.9345  -4.9281  -4.7950  -4.7912
    -4.7829  -4.5784  -4.5445  -4.5317  -4.5175  -4.5093  -4.4939  -4.4606
    -4.4507  -4.4404  -4.0985  -4.0752  -4.0682  -3.9158  -3.9122  -3.9099
    -3.7882  -3.7340  -3.7244  -3.6402  -3.6375  -3.6335  -3.5915  -3.5736
    -3.5719  -3.5155  -3.5094  -3.5071  -3.3965  -3.3713  -3.3482  -3.1868
    -3.1722  -3.1664  -3.0025  -2.9923  -2.9796  -2.7731  -2.7609  -2.6159
    -1.0367  -0.5984  -0.5958  -0.5841  -0.0573   0.2464   0.2535   0.2723
     0.3094   0.3119   0.3251   0.5450   0.5526   0.5768   0.7589   0.7615
     0.7689   0.7736   0.7826   1.0593   1.2172   1.2262   1.2287   1.2973
     1.5420   1.5503   1.5723   1.9706   1.9981   2.0616   2.1041   2.1137
     2.1301   2.3467   2.3738   2.3926   2.4155   2.5321   2.7460   2.7618
     2.7757   2.7843   2.7959   2.8015   2.9192   2.9423   2.9584   2.9797
     3.1999   3.2165   3.2371   3.3308   3.4752   3.5616   3.5871   3.5966
     3.6310   3.7076   3.8069   3.8258   3.8602   3.9160   3.9675   4.0144
     4.0323   4.0560   4.0763   4.0879   4.1012   4.1381   4.2154   4.2237
     4.2324   4.2565   4.2705   4.3401   4.4037   4.4337   4.4680   4.5227
     4.5803   4.6720

          k = 0.1875 0.3248-0.2308 ( 96062 PWs)   bands (ev):

  -113.9629-113.9593-113.9575-113.9532 -71.4353 -71.4340 -71.4320 -71.4305
   -71.4302 -71.4292 -71.4253 -71.4247 -71.2642 -71.2604 -71.2578 -71.2545
   -22.5476 -19.3549 -18.4842 -18.3876 -18.3783 -18.3409 -17.5451 -17.5407
   -17.5337 -17.5177 -17.1162 -17.1076 -17.0943 -17.0874 -17.0422 -16.8801
   -16.8757 -16.8367 -16.8316 -16.8308 -16.8281 -16.8237 -16.8218 -16.8164
   -16.8084 -16.8056 -16.7901 -16.7498 -16.7420 -16.6750 -16.0106 -15.9215
   -15.9136 -15.6880 -15.5886 -15.5775 -15.5603 -15.4654 -15.2968 -15.2181
   -15.2047 -15.0747 -14.9866 -14.9486 -14.9348 -14.9162 -14.8531 -12.6407
   -12.2523 -12.2392 -12.0935 -11.4087 -10.9032 -10.5729 -10.5622 -10.3939
   -10.1112  -9.3318  -9.1430  -9.1353  -8.9912  -8.5546  -8.5289  -8.4766
    -8.4056  -8.3303  -8.2639  -8.2417  -8.1419  -8.1081  -8.0022  -7.9423
    -7.9279  -7.9151  -7.7828  -7.5872  -7.3706  -7.2269  -7.2134  -6.9028
    -6.8884  -6.8360  -6.8154  -6.5858  -6.4820  -6.1363  -6.1305  -6.1017
    -5.9986  -5.9557  -5.9187  -5.8556  -5.7430  -5.6949  -5.6576  -5.6283
    -5.6049  -5.5730  -5.4798  -5.4608  -5.4389  -5.4265  -5.2680  -5.2636
    -5.2362  -5.2150  -5.1993  -5.0356  -5.0160  -4.9937  -4.7981  -4.7861
    -4.7673  -4.6487  -4.5312  -4.5215  -4.4601  -4.4269  -4.4013  -4.3650
    -4.3546  -4.3400  -4.0885  -4.0575  -4.0378  -3.9618  -3.8630  -3.8421
    -3.7900  -3.7492  -3.7281  -3.6919  -3.6585  -3.6360  -3.6301  -3.5822
    -3.5602  -3.5315  -3.5138  -3.4847  -3.4501  -3.4139  -3.3518  -3.2632
    -3.1968  -3.1814  -3.1202  -3.1161  -3.0945  -2.8857  -2.8828  -2.6152
    -0.7272  -0.6961  -0.5561  -0.5480   0.0303   0.1414   0.2169   0.2449
     0.2681   0.4835   0.5308   0.5559   0.6556   0.6629   0.6949   0.7408
     0.7475   0.7703   0.7968   0.9972   1.0908   1.1792   1.2227   1.2653
     1.4938   1.6335   1.6537   1.8575   1.9546   1.9627   1.9758   2.0490
     2.2277   2.3303   2.3879   2.4022   2.4426   2.5335   2.7172   2.7218
     2.7518   2.7766   2.8645   2.9162   2.9479   2.9872   3.0235   3.0545
     3.1113   3.2191   3.2595   3.2674   3.3970   3.4355   3.5129   3.6016
     3.6509   3.6895   3.7323   3.7553   3.7917   3.8844   3.9523   3.9967
     4.0310   4.0722   4.1038   4.1717   4.2128   4.2310   4.2706   4.3236
     4.3481   4.4019   4.4213   4.4499   4.4860   4.5286   4.5634   4.6457
     4.7086   4.7527

          k = 0.1875 0.4691-0.2308 ( 96084 PWs)   bands (ev):

  -113.9629-113.9593-113.9575-113.9532 -71.4353 -71.4340 -71.4320 -71.4305
   -71.4302 -71.4292 -71.4253 -71.4247 -71.2642 -71.2604 -71.2578 -71.2545
   -22.5476 -19.3549 -18.4583 -18.4113 -18.3870 -18.3372 -17.5425 -17.5381
   -17.5316 -17.5225 -17.1207 -17.1129 -17.1033 -17.0945 -16.9929 -16.9158
   -16.8768 -16.8338 -16.8315 -16.8294 -16.8265 -16.8244 -16.8217 -16.8173
   -16.8095 -16.8052 -16.7866 -16.7676 -16.7482 -16.6585 -15.9951 -15.8830
   -15.8165 -15.7369 -15.6564 -15.6002 -15.5574 -15.4983 -15.2914 -15.1950
   -15.1332 -15.0734 -15.0155 -14.9973 -14.9349 -14.9135 -14.8705 -12.5282
   -12.3483 -12.2562 -12.0687 -11.4086 -10.8173 -10.6631 -10.5707 -10.3578
   -10.1109  -9.2823  -9.1921  -9.1234  -8.9213  -8.5892  -8.5647  -8.5362
    -8.4003  -8.3339  -8.3039  -8.1741  -8.1332  -8.1020  -8.0870  -8.0124
    -7.9777  -7.9690  -7.7878  -7.4734  -7.4158  -7.2951  -7.2242  -6.8642
    -6.8386  -6.7437  -6.7335  -6.5867  -6.4816  -6.1016  -6.0405  -6.0339
    -6.0134  -5.9272  -5.9071  -5.8865  -5.7778  -5.7505  -5.6530  -5.5944
    -5.5910  -5.5524  -5.4905  -5.4606  -5.4379  -5.4242  -5.3082  -5.2654
    -5.2509  -5.1982  -5.1880  -5.0949  -5.0792  -5.0511  -4.7891  -4.7495
    -4.7249  -4.6714  -4.5157  -4.5088  -4.4339  -4.4012  -4.3604  -4.3432
    -4.3257  -4.3066  -4.1124  -4.1011  -4.0874  -4.0511  -3.8248  -3.8083
    -3.7730  -3.7493  -3.7090  -3.6988  -3.6911  -3.6352  -3.6209  -3.5936
    -3.5839  -3.5111  -3.4668  -3.4590  -3.4425  -3.4141  -3.3676  -3.2738
    -3.2594  -3.2450  -3.1934  -3.1052  -3.0839  -2.9822  -2.8431  -2.6154
    -0.7236  -0.6142  -0.5762  -0.5414  -0.0546   0.1815   0.1985   0.2046
     0.2305   0.4934   0.5716   0.6262   0.6660   0.7031   0.7225   0.7497
     0.7732   0.7772   0.8603   0.8972   1.1016   1.1619   1.2144   1.2462
     1.4432   1.7109   1.7561   1.8438   1.9264   1.9411   1.9590   2.0332
     2.2476   2.2757   2.3015   2.3802   2.4678   2.5303   2.7379   2.7480
     2.8102   2.8185   2.8497   2.9372   3.0106   3.0367   3.0546   3.0829
     3.1049   3.1450   3.2056   3.2364   3.3122   3.4382   3.4735   3.5581
     3.6109   3.6411   3.6948   3.7509   3.8057   3.9045   3.9257   3.9678
     4.0668   4.0867   4.1270   4.1746   4.2039   4.2590   4.3194   4.3574
     4.3765   4.4171   4.4768   4.5009   4.5551   4.6050   4.6441   4.6639
     4.7052   4.7232

          k = 0.1875 0.6134-0.2308 ( 96082 PWs)   bands (ev):

  -113.9629-113.9593-113.9575-113.9532 -71.4353 -71.4340 -71.4320 -71.4305
   -71.4302 -71.4292 -71.4253 -71.4247 -71.2642 -71.2604 -71.2578 -71.2545
   -22.5476 -19.3549 -18.4447 -18.4250 -18.3883 -18.3364 -17.5412 -17.5384
   -17.5312 -17.5234 -17.1231 -17.1126 -17.1050 -17.0968 -16.9675 -16.9381
   -16.8772 -16.8331 -16.8317 -16.8288 -16.8261 -16.8250 -16.8213 -16.8178
   -16.8097 -16.8052 -16.7848 -16.7728 -16.7491 -16.6547 -15.9908 -15.8711
   -15.7665 -15.7468 -15.7088 -15.6109 -15.5343 -15.5188 -15.2904 -15.1863
   -15.0997 -15.0757 -15.0441 -15.0065 -14.9359 -14.9076 -14.8765 -12.4679
   -12.4060 -12.2586 -12.0633 -11.4086 -10.7680 -10.7142 -10.5711 -10.3501
   -10.1107  -9.2543  -9.2203  -9.1205  -8.9009  -8.5877  -8.5740  -8.5540
    -8.4383  -8.3329  -8.2588  -8.1531  -8.1448  -8.1203  -8.0964  -8.0317
    -7.9908  -7.9830  -7.7896  -7.4298  -7.4082  -7.3464  -7.2309  -6.8593
    -6.8054  -6.7386  -6.7114  -6.5873  -6.4815  -6.0918  -6.0406  -6.0010
    -5.9788  -5.9474  -5.9307  -5.8490  -5.8249  -5.7534  -5.6382  -5.6007
    -5.5743  -5.5592  -5.5101  -5.4402  -5.4305  -5.4155  -5.3272  -5.3047
    -5.2314  -5.1811  -5.1682  -5.1152  -5.0942  -5.0804  -4.7856  -4.7440
    -4.7147  -4.6714  -4.5096  -4.4730  -4.4648  -4.3987  -4.3506  -4.3330
    -4.3139  -4.2976  -4.1352  -4.1202  -4.1059  -4.0590  -3.8132  -3.7918
    -3.7785  -3.7655  -3.7155  -3.6842  -3.6609  -3.6353  -3.6284  -3.6163
    -3.5855  -3.4931  -3.4706  -3.4590  -3.4375  -3.3950  -3.3499  -3.3175
    -3.2931  -3.2378  -3.1990  -3.0991  -3.0783  -3.0102  -2.8359  -2.6157
    -0.7269  -0.5876  -0.5759  -0.5500  -0.0736   0.1593   0.1868   0.2169
     0.2397   0.5086   0.5513   0.6527   0.6741   0.6882   0.7015   0.7345
     0.7898   0.8076   0.8687   0.9826   1.0025   1.1745   1.2041   1.2622
     1.4227   1.7479   1.8070   1.8323   1.9249   1.9489   1.9644   1.9858
     2.2627   2.2699   2.2973   2.3210   2.4755   2.5279   2.7360   2.7690
     2.8009   2.8717   2.8819   2.9306   2.9961   3.0255   3.0544   3.0792
     3.1330   3.1522   3.2130   3.2376   3.3007   3.3585   3.4991   3.5293
     3.5833   3.6011   3.6975   3.7527   3.8056   3.8810   3.9462   3.9842
     4.0340   4.0764   4.1293   4.2150   4.2675   4.2924   4.3282   4.3574
     4.3763   4.4110   4.4735   4.4934   4.5436   4.6246   4.6599   4.6987
     4.7343   4.7895

          k = 0.1875-0.3969-0.2308 ( 96040 PWs)   bands (ev):

  -113.9629-113.9593-113.9575-113.9532 -71.4353 -71.4340 -71.4320 -71.4305
   -71.4302 -71.4292 -71.4253 -71.4247 -71.2642 -71.2604 -71.2578 -71.2545
   -22.5476 -19.3549 -18.4719 -18.3972 -18.3847 -18.3387 -17.5427 -17.5411
   -17.5309 -17.5211 -17.1164 -17.1132 -17.0975 -17.0933 -17.0190 -16.8936
   -16.8781 -16.8340 -16.8319 -16.8300 -16.8270 -16.8251 -16.8209 -16.8173
   -16.8089 -16.8055 -16.7886 -16.7579 -16.7474 -16.6655 -16.0030 -15.8957
   -15.8719 -15.7144 -15.6073 -15.5966 -15.5660 -15.4811 -15.2946 -15.1962
   -15.1770 -15.0760 -14.9977 -14.9695 -14.9341 -14.9247 -14.8583 -12.5868
   -12.2944 -12.2518 -12.0789 -11.4087 -10.8624 -10.6148 -10.5680 -10.3741
   -10.1106  -9.3087  -9.1628  -9.1321  -8.9534  -8.5723  -8.5525  -8.5077
    -8.4121  -8.3327  -8.2736  -8.2101  -8.1362  -8.1081  -8.0571  -7.9700
    -7.9549  -7.9420  -7.7884  -7.5354  -7.3976  -7.2426  -7.2321  -6.8834
    -6.8286  -6.8117  -6.7661  -6.5867  -6.4820  -6.1109  -6.0903  -6.0707
    -6.0032  -5.9590  -5.8993  -5.8686  -5.7466  -5.7320  -5.6503  -5.6162
    -5.5947  -5.5689  -5.4803  -5.4620  -5.4361  -5.4211  -5.2992  -5.2771
    -5.2274  -5.2077  -5.1985  -5.0649  -5.0426  -5.0277  -4.7920  -4.7746
    -4.7476  -4.6515  -4.5186  -4.5147  -4.4518  -4.4137  -4.3814  -4.3474
    -4.3393  -4.3284  -4.0967  -4.0629  -4.0577  -4.0293  -3.8484  -3.8149
    -3.7714  -3.7534  -3.7491  -3.6798  -3.6725  -3.6409  -3.6318  -3.5869
    -3.5411  -3.5196  -3.5066  -3.5002  -3.4522  -3.4044  -3.3295  -3.2595
    -3.2186  -3.1960  -3.1909  -3.1576  -3.0813  -2.9242  -2.8607  -2.6159
    -0.7123  -0.6649  -0.5668  -0.5404  -0.0163   0.1692   0.1946   0.2308
     0.2494   0.4926   0.5420   0.6177   0.6534   0.6846   0.6982   0.7218
     0.7588   0.8021   0.8334   0.9408   1.0819   1.1899   1.2079   1.2598
     1.4610   1.6822   1.7027   1.8539   1.9355   1.9513   1.9640   2.0334
     2.2551   2.3145   2.3454   2.3639   2.4592   2.5198   2.7223   2.7421
     2.7729   2.8110   2.8813   2.9410   2.9768   2.9977   3.0247   3.0651
     3.1450   3.1938   3.2421   3.2597   3.3011   3.4151   3.5061   3.5440
     3.6067   3.6631   3.6913   3.7515   3.7965   3.8966   3.9551   3.9959
     4.0301   4.0857   4.1268   4.1882   4.2123   4.2689   4.3178   4.3450
     4.3813   4.4060   4.4801   4.5109   4.5403   4.5725   4.5831   4.6235
     4.6510   4.7404

          k = 0.1875-0.2526-0.2308 ( 96066 PWs)   bands (ev):

  -113.9629-113.9593-113.9575-113.9532 -71.4353 -71.4340 -71.4320 -71.4305
   -71.4302 -71.4292 -71.4253 -71.4247 -71.2642 -71.2604 -71.2578 -71.2545
   -22.5476 -19.3549 -18.4945 -18.3808 -18.3707 -18.3434 -17.5461 -17.5430
   -17.5346 -17.5146 -17.1157 -17.1014 -17.0891 -17.0842 -17.0618 -16.8773
   -16.8657 -16.8402 -16.8322 -16.8312 -16.8276 -16.8249 -16.8210 -16.8163
   -16.8078 -16.8058 -16.7911 -16.7433 -16.7324 -16.6863 -16.0146 -15.9596
   -15.9392 -15.6606 -15.5909 -15.5762 -15.5229 -15.4502 -15.2969 -15.2457
   -15.2219 -15.0756 -14.9770 -14.9443 -14.9338 -14.9028 -14.8409 -12.6877
   -12.2363 -12.2060 -12.1110 -11.4089 -10.9365 -10.5621 -10.5277 -10.4206
   -10.1107  -9.3507  -9.1449  -9.1181  -9.0313  -8.5259  -8.5114  -8.4481
    -8.4064  -8.3315  -8.2713  -8.2301  -8.1392  -8.1101  -7.9582  -7.9138
    -7.8997  -7.8777  -7.7833  -7.6372  -7.3340  -7.2218  -7.1993  -6.9436
    -6.9236  -6.8737  -6.8665  -6.5853  -6.4823  -6.1702  -6.1544  -6.1369
    -5.9929  -5.9511  -5.9343  -5.8637  -5.7367  -5.6634  -5.6605  -5.6272
    -5.6250  -5.5745  -5.4989  -5.4470  -5.4372  -5.4243  -5.2649  -5.2498
    -5.2172  -5.2148  -5.1948  -5.0106  -4.9894  -4.9609  -4.8071  -4.7985
    -4.7778  -4.6422  -4.5381  -4.5310  -4.4768  -4.4518  -4.4132  -4.3869
    -4.3681  -4.3564  -4.0795  -4.0517  -4.0435  -3.8999  -3.8739  -3.8651
    -3.8231  -3.7495  -3.6958  -3.6809  -3.6527  -3.6351  -3.6257  -3.5846
    -3.5671  -3.5590  -3.5072  -3.4611  -3.4556  -3.4414  -3.3424  -3.2492
    -3.1945  -3.1717  -3.1029  -3.0666  -3.0317  -2.9115  -2.8529  -2.6160
    -0.7928  -0.6741  -0.5718  -0.5406   0.0818   0.1015   0.2323   0.2459
     0.2999   0.4859   0.4894   0.5031   0.6193   0.6503   0.6979   0.7365
     0.7575   0.7620   0.7879   1.0668   1.0814   1.1664   1.2311   1.2752
     1.5107   1.5852   1.6330   1.8740   1.9730   1.9919   2.0003   2.0453
     2.2029   2.3630   2.3829   2.4282   2.4538   2.5259   2.7053   2.7193
     2.7379   2.7603   2.8591   2.9032   2.9164   2.9682   3.0100   3.0563
     3.1797   3.2193   3.2861   3.2946   3.3582   3.4603   3.4709   3.5971
     3.6532   3.7134   3.7545   3.7749   3.7988   3.8862   3.9718   4.0146
     4.0317   4.0616   4.1118   4.1463   4.1950   4.2453   4.2642   4.2829
     4.3199   4.3543   4.4057   4.4292   4.4501   4.5001   4.5433   4.6076
     4.6947   4.7257

          k = 0.1875-0.1083-0.2308 ( 96046 PWs)   bands (ev):

  -113.9629-113.9593-113.9575-113.9532 -71.4353 -71.4340 -71.4320 -71.4305
   -71.4302 -71.4292 -71.4253 -71.4247 -71.2642 -71.2604 -71.2578 -71.2545
   -22.5476 -19.3549 -18.5080 -18.3723 -18.3599 -18.3463 -17.5489 -17.5442
   -17.5379 -17.5091 -17.1158 -17.0961 -17.0882 -17.0785 -17.0737 -16.8714
   -16.8537 -16.8517 -16.8323 -16.8314 -16.8282 -16.8244 -16.8215 -16.8156
   -16.8069 -16.8056 -16.7924 -16.7348 -16.7149 -16.7043 -16.0169 -16.0102
   -15.9808 -15.6099 -15.6063 -15.5676 -15.4709 -15.4322 -15.2964 -15.2819
   -15.2545 -15.0754 -14.9586 -14.9542 -14.9347 -14.8632 -14.8307 -12.7517
   -12.2095 -12.1593 -12.1453 -11.4091 -10.9805 -10.5395 -10.4812 -10.4689
   -10.1107  -9.3749  -9.1429  -9.0971  -9.0929  -8.4849  -8.4560  -8.4296
    -8.4026  -8.3302  -8.3112  -8.1619  -8.1293  -8.1188  -7.8965  -7.8819
    -7.8546  -7.8234  -7.7736  -7.6999  -7.2539  -7.2382  -7.1925  -6.9933
    -6.9721  -6.9643  -6.9547  -6.5845  -6.4822  -6.2010  -6.1974  -6.1935
    -5.9780  -5.9586  -5.9418  -5.8816  -5.7339  -5.6589  -5.6489  -5.6338
    -5.6239  -5.5739  -5.5211  -5.4361  -5.4331  -5.4235  -5.2416  -5.2289
    -5.2154  -5.1997  -5.1901  -4.9658  -4.9542  -4.9354  -4.8122  -4.8032
    -4.7898  -4.6252  -4.5462  -4.5189  -4.5048  -4.4970  -4.4351  -4.4171
    -4.4084  -4.3865  -4.0812  -4.0587  -4.0507  -3.9010  -3.8822  -3.8770
    -3.8268  -3.7460  -3.6849  -3.6783  -3.6341  -3.6262  -3.6010  -3.5923
    -3.5869  -3.5020  -3.4952  -3.4931  -3.4802  -3.4127  -3.3555  -3.2016
    -3.1967  -3.1652  -3.0765  -2.9856  -2.9739  -2.9038  -2.8057  -2.6161
    -0.9077  -0.6175  -0.6146  -0.5431   0.0281   0.1831   0.1978   0.2854
     0.3487   0.3697   0.4235   0.5307   0.5514   0.6172   0.7189   0.7261
     0.7670   0.7786   0.7920   1.0625   1.1553   1.1839   1.2271   1.2914
     1.5331   1.5490   1.5995   1.9041   2.0058   2.0312   2.0489   2.0595
     2.1529   2.3693   2.3940   2.4265   2.4504   2.5367   2.7031   2.7254
     2.7428   2.7846   2.8122   2.8496   2.9123   2.9517   2.9726   3.0157
     3.2134   3.2321   3.2886   3.3446   3.4128   3.4465   3.5394   3.5933
     3.6195   3.6812   3.8070   3.8274   3.9066   3.9434   3.9792   4.0011
     4.0196   4.0422   4.0703   4.0888   4.1482   4.1756   4.2131   4.2617
     4.2725   4.3108   4.3391   4.3690   4.4074   4.5214   4.5410   4.5862
     4.6347   4.6782

          k = 0.3125 0.5413-0.2308 ( 96108 PWs)   bands (ev):

  -113.9629-113.9593-113.9575-113.9532 -71.4353 -71.4340 -71.4320 -71.4305
   -71.4302 -71.4292 -71.4253 -71.4247 -71.2642 -71.2604 -71.2578 -71.2545
   -22.5476 -19.3549 -18.4330 -18.4204 -18.4085 -18.3331 -17.5410 -17.5378
   -17.5319 -17.5228 -17.1264 -17.1127 -17.1060 -17.0988 -16.9440 -16.9211
   -16.9150 -16.8323 -16.8317 -16.8287 -16.8262 -16.8248 -16.8206 -16.8176
   -16.8103 -16.8048 -16.7804 -16.7724 -16.7654 -16.6434 -15.9926 -15.7935
   -15.7896 -15.7685 -15.7434 -15.5655 -15.5585 -15.5403 -15.2927 -15.1274
   -15.1214 -15.0849 -15.0655 -15.0148 -14.9203 -14.9043 -14.8903 -12.4194
   -12.3690 -12.3548 -12.0474 -11.4085 -10.7264 -10.6784 -10.6642 -10.3295
   -10.1103  -9.2261  -9.1961  -9.1853  -8.8649  -8.5905  -8.5852  -8.5754
    -8.3656  -8.3428  -8.3281  -8.1834  -8.1152  -8.0993  -8.0869  -8.0345
    -8.0240  -8.0179  -7.7886  -7.4597  -7.3563  -7.3030  -7.2999  -6.8511
    -6.7486  -6.7388  -6.7206  -6.5860  -6.4813  -6.0301  -6.0147  -6.0106
    -5.9833  -5.9633  -5.8952  -5.8877  -5.8577  -5.7503  -5.6397  -5.5829
    -5.5715  -5.5673  -5.5285  -5.4187  -5.4151  -5.4002  -5.3130  -5.2994
    -5.2799  -5.1613  -5.1579  -5.1311  -5.1277  -5.1201  -4.7867  -4.7128
    -4.7044  -4.6728  -4.4976  -4.4882  -4.4741  -4.3795  -4.3380  -4.3205
    -4.3147  -4.2998  -4.1366  -4.1198  -4.1109  -4.0929  -3.8040  -3.7979
    -3.7883  -3.7815  -3.6957  -3.6900  -3.6849  -3.6236  -3.6105  -3.6019
    -3.5908  -3.4845  -3.4682  -3.4414  -3.4236  -3.4100  -3.3753  -3.3300
    -3.3095  -3.2750  -3.1834  -3.0828  -3.0656  -3.0409  -2.8070  -2.6158
    -0.7401  -0.5712  -0.5670  -0.5560  -0.1128   0.1490   0.1967   0.2084
     0.2203   0.4963   0.6378   0.6519   0.6665   0.7039   0.7137   0.7237
     0.7552   0.8190   0.9015   0.9135   0.9746   1.2222   1.2285   1.2415
     1.3852   1.8574   1.8742   1.8800   1.9022   1.9222   1.9385   1.9514
     2.2572   2.2678   2.2896   2.3012   2.4729   2.5458   2.7227   2.7940
     2.8161   2.8417   2.8979   2.9765   2.9899   3.0227   3.0688   3.0845
     3.1240   3.1511   3.1964   3.2480   3.3233   3.3850   3.4299   3.4958
     3.5191   3.5433   3.7408   3.8098   3.8624   3.8926   3.9667   3.9952
     4.0292   4.0499   4.0926   4.1034   4.2237   4.2944   4.3115   4.3628
     4.3989   4.4260   4.4673   4.5229   4.5925   4.6359   4.6637   4.7041
     4.7443   4.7748

          k = 0.3125 0.6856-0.2308 ( 96126 PWs)   bands (ev):

  -113.9629-113.9593-113.9575-113.9532 -71.4353 -71.4340 -71.4320 -71.4305
   -71.4302 -71.4292 -71.4253 -71.4247 -71.2642 -71.2604 -71.2578 -71.2545
   -22.5476 -19.3549 -18.4457 -18.4150 -18.3993 -18.3346 -17.5407 -17.5392
   -17.5308 -17.5232 -17.1244 -17.1128 -17.1038 -17.0986 -16.9689 -16.9175
   -16.8954 -16.8322 -16.8319 -16.8291 -16.8266 -16.8251 -16.8195 -16.8183
   -16.8101 -16.8052 -16.7837 -16.7690 -16.7601 -16.6487 -15.9935 -15.8373
   -15.8007 -15.7569 -15.7006 -15.5828 -15.5604 -15.5168 -15.2920 -15.1589
   -15.1241 -15.0788 -15.0412 -15.0114 -14.9267 -14.9121 -14.8774 -12.4751
   -12.3571 -12.3076 -12.0547 -11.4086 -10.7724 -10.6694 -10.6206 -10.3400
   -10.1101  -9.2556  -9.1912  -9.1574  -8.8865  -8.5931  -8.5780  -8.5596
    -8.3724  -8.3376  -8.3293  -8.1503  -8.1423  -8.1181  -8.0824  -8.0277
    -8.0031  -7.9932  -7.7894  -7.4466  -7.4143  -7.3033  -7.2518  -6.8565
    -6.7891  -6.7348  -6.7203  -6.5865  -6.4814  -6.0618  -6.0312  -6.0193
    -5.9961  -5.9241  -5.9092  -5.9053  -5.8143  -5.7497  -5.6455  -5.5870
    -5.5846  -5.5562  -5.5130  -5.4365  -5.4239  -5.4129  -5.3128  -5.2831
    -5.2610  -5.1816  -5.1751  -5.1224  -5.1029  -5.0849  -4.7883  -4.7348
    -4.7058  -4.6704  -4.5077  -4.5016  -4.4492  -4.3885  -4.3466  -4.3284
    -4.3130  -4.3098  -4.1308  -4.1183  -4.0969  -4.0741  -3.8150  -3.7970
    -3.7907  -3.7597  -3.7006  -3.6944  -3.6868  -3.6363  -3.6133  -3.5950
    -3.5900  -3.4942  -3.4677  -3.4524  -3.4304  -3.4222  -3.3529  -3.3074
    -3.2946  -3.2562  -3.1871  -3.1124  -3.0673  -3.0128  -2.8196  -2.6161
    -0.7351  -0.5861  -0.5678  -0.5516  -0.0919   0.1649   0.1990   0.2010
     0.2224   0.4958   0.6203   0.6354   0.6802   0.6947   0.7063   0.7297
     0.7696   0.8444   0.8513   0.8848   1.0426   1.1912   1.2333   1.2419
     1.4033   1.7901   1.8122   1.8650   1.9233   1.9337   1.9454   1.9989
     2.2565   2.2723   2.2877   2.3333   2.4688   2.5375   2.7252   2.7757
     2.8174   2.8347   2.8895   2.9655   3.0106   3.0495   3.0613   3.0819
     3.1027   3.1682   3.1951   3.2169   3.2863   3.4084   3.4459   3.5274
     3.5388   3.5763   3.7105   3.7905   3.8490   3.9094   3.9514   3.9689
     3.9902   4.0813   4.1142   4.1573   4.2474   4.2935   4.3337   4.3733
     4.3975   4.4362   4.4693   4.4989   4.5320   4.6302   4.6596   4.6811
     4.7002   4.7681

          k = 0.3125-0.3248-0.2308 ( 96096 PWs)   bands (ev):

  -113.9629-113.9593-113.9575-113.9532 -71.4353 -71.4340 -71.4320 -71.4305
   -71.4302 -71.4292 -71.4253 -71.4247 -71.2642 -71.2604 -71.2578 -71.2545
   -22.5476 -19.3549 -18.4695 -18.4070 -18.3749 -18.3413 -17.5425 -17.5401
   -17.5313 -17.5218 -17.1160 -17.1118 -17.1006 -17.0927 -17.0150 -16.9114
   -16.8630 -16.8351 -16.8320 -16.8309 -16.8269 -16.8252 -16.8196 -16.8175
   -16.8092 -16.8060 -16.7879 -16.7654 -16.7342 -16.6721 -15.9935 -15.9221
   -15.8418 -15.7113 -15.6218 -15.6163 -15.5507 -15.4795 -15.2868 -15.2245
   -15.1461 -15.0754 -14.9957 -14.9769 -14.9467 -14.9155 -14.8596 -12.5769
   -12.3330 -12.2120 -12.0887 -11.4087 -10.8547 -10.6507 -10.5268 -10.3862
   -10.1103  -9.3048  -9.1898  -9.0940  -8.9662  -8.5710  -8.5549  -8.5126
    -8.4224  -8.3319  -8.2689  -8.2051  -8.1403  -8.0991  -8.0547  -7.9992
    -7.9463  -7.9378  -7.7869  -7.5304  -7.3740  -7.2899  -7.2136  -6.8853
    -6.8738  -6.7629  -6.7565  -6.5856  -6.4817  -6.1334  -6.0765  -6.0544
    -6.0084  -5.9410  -5.9112  -5.8704  -5.7467  -5.7358  -5.6611  -5.6083
    -5.5951  -5.5558  -5.4777  -5.4676  -5.4479  -5.4335  -5.3015  -5.2530
    -5.2353  -5.1996  -5.1937  -5.0700  -5.0519  -5.0193  -4.7953  -4.7712
    -4.7431  -4.6690  -4.5212  -4.5141  -4.4320  -4.4269  -4.3698  -4.3556
    -4.3372  -4.3184  -4.1003  -4.0812  -4.0507  -4.0407  -3.8324  -3.8171
    -3.7577  -3.7477  -3.7190  -3.7111  -3.6696  -3.6388  -3.6218  -3.5984
    -3.5725  -3.5403  -3.4953  -3.4510  -3.4467  -3.4157  -3.3405  -3.2708
    -3.2581  -3.1914  -3.1845  -3.1130  -3.0687  -2.9529  -2.8774  -2.6162
    -0.7056  -0.6504  -0.5975  -0.5219  -0.0049   0.1650   0.1835   0.2405
     0.2506   0.4992   0.5142   0.6181   0.6489   0.7014   0.7191   0.7478
     0.7602   0.7715   0.8384   0.9667   1.1177   1.1281   1.2182   1.2437
     1.4812   1.6329   1.7091   1.8419   1.9374   1.9498   1.9654   2.0530
     2.2367   2.2924   2.3214   2.4071   2.4508   2.5321   2.7312   2.7534
     2.7729   2.7936   2.8300   2.9636   2.9940   3.0056   3.0733   3.1044
     3.1226   3.1550   3.1994   3.2610   3.2723   3.4416   3.4934   3.5483
     3.6194   3.6946   3.7265   3.7476   3.7634   3.9126   3.9605   3.9977
     4.0212   4.0852   4.1153   4.1679   4.2034   4.2694   4.3161   4.3485
     4.4025   4.4252   4.4874   4.5128   4.5201   4.5609   4.6085   4.6462
     4.6934   4.7488

          k = 0.3125-0.1804-0.2308 ( 96048 PWs)   bands (ev):

  -113.9629-113.9593-113.9575-113.9532 -71.4353 -71.4340 -71.4320 -71.4305
   -71.4302 -71.4292 -71.4253 -71.4247 -71.2642 -71.2604 -71.2578 -71.2545
   -22.5476 -19.3549 -18.4866 -18.3950 -18.3606 -18.3483 -17.5454 -17.5404
   -17.5342 -17.5175 -17.1133 -17.1044 -17.0976 -17.0850 -17.0481 -16.8975
   -16.8477 -16.8459 -16.8322 -16.8310 -16.8270 -16.8249 -16.8202 -16.8167
   -16.8085 -16.8061 -16.7900 -16.7577 -16.7093 -16.6987 -15.9880 -15.9799
   -15.8945 -15.6524 -15.6457 -15.5554 -15.5494 -15.4572 -15.2800 -15.2636
   -15.1851 -15.0749 -14.9715 -14.9667 -14.9240 -14.9205 -14.8479 -12.6524
   -12.2915 -12.1500 -12.1361 -11.4088 -10.9112 -10.6152 -10.4607 -10.4498
   -10.1104  -9.3368  -9.1768  -9.0542  -9.0472  -8.5390  -8.5061  -8.4685
    -8.4645  -8.3316  -8.2531  -8.1945  -8.1399  -8.1309  -7.9755  -7.9731
    -7.9022  -7.8932  -7.7835  -7.6091  -7.2833  -7.2691  -7.2505  -6.9283
    -6.8937  -6.8305  -6.8246  -6.5846  -6.4817  -6.1543  -6.1411  -6.1086
    -5.9942  -5.9647  -5.9103  -5.8590  -5.7378  -5.6850  -5.6596  -5.6313
    -5.6065  -5.5759  -5.4837  -5.4573  -5.4434  -5.4315  -5.2890  -5.2451
    -5.2321  -5.1996  -5.1903  -5.0201  -5.0058  -4.9830  -4.8056  -4.7945
    -4.7738  -4.6546  -4.5299  -4.4996  -4.4798  -4.4561  -4.3916  -4.3749
    -4.3603  -4.3388  -4.0771  -4.0583  -4.0525  -3.9476  -3.8577  -3.8345
    -3.8118  -3.7515  -3.7324  -3.6547  -3.6396  -3.6288  -3.6172  -3.5974
    -3.5742  -3.5728  -3.4883  -3.4772  -3.4495  -3.4337  -3.3500  -3.2428
    -3.2119  -3.1790  -3.1691  -3.0802  -2.9752  -2.9608  -2.8920  -2.6163
    -0.7373  -0.6476  -0.6412  -0.5083   0.1048   0.1197   0.1362   0.2836
     0.3533   0.3905   0.5279   0.5667   0.5837   0.6817   0.6959   0.7084
     0.7547   0.7933   0.8499   1.0688   1.0791   1.1129   1.2249   1.2710
     1.5335   1.5596   1.6495   1.8524   1.9516   1.9792   1.9874   2.0543
     2.2179   2.3296   2.3646   2.4172   2.4441   2.5375   2.7050   2.7194
     2.7619   2.7953   2.8109   2.9189   2.9381   2.9763   3.0369   3.0724
     3.1730   3.2056   3.2420   3.3133   3.3605   3.4511   3.4695   3.5670
     3.6043   3.6394   3.7128   3.7991   3.9247   3.9483   3.9620   4.0121
     4.0348   4.0725   4.1045   4.1231   4.1543   4.2355   4.2777   4.3243
     4.3372   4.3802   4.4147   4.4589   4.5373   4.5647   4.6006   4.6505
     4.6810   4.7455

          k = 0.4375 0.7578-0.2308 ( 96082 PWs)   bands (ev):

  -113.9629-113.9593-113.9575-113.9532 -71.4353 -71.4340 -71.4320 -71.4305
   -71.4302 -71.4292 -71.4253 -71.4247 -71.2642 -71.2604 -71.2578 -71.2545
   -22.5476 -19.3549 -18.4431 -18.4342 -18.3763 -18.3405 -17.5404 -17.5380
   -17.5322 -17.5240 -17.1210 -17.1105 -17.1045 -17.0976 -16.9648 -16.9568
   -16.8620 -16.8348 -16.8319 -16.8301 -16.8263 -16.8252 -16.8188 -16.8180
   -16.8104 -16.8059 -16.7836 -16.7765 -16.7347 -16.6664 -15.9827 -15.9025
   -15.7350 -15.7319 -15.7266 -15.6376 -15.5195 -15.5104 -15.2827 -15.2132
   -15.0843 -15.0660 -15.0498 -14.9995 -14.9520 -14.8996 -14.8757 -12.4590
   -12.4453 -12.2133 -12.0805 -11.4086 -10.7603 -10.7483 -10.5248 -10.3731
   -10.1100  -9.2533  -9.2413  -9.0834  -8.9320  -8.5797  -8.5609  -8.5513
    -8.4719  -8.3322  -8.2182  -8.1576  -8.1460  -8.1230  -8.0962  -8.0483
    -7.9726  -7.9631  -7.7876  -7.4123  -7.4018  -7.3816  -7.2229  -6.8632
    -6.8420  -6.7261  -6.7102  -6.5854  -6.4814  -6.1165  -6.0659  -5.9996
    -5.9596  -5.9449  -5.9382  -5.8386  -5.8195  -5.7481  -5.6420  -5.6145
    -5.5743  -5.5484  -5.4947  -5.4633  -5.4432  -5.4297  -5.3169  -5.2956
    -5.2209  -5.1854  -5.1429  -5.1283  -5.0781  -5.0612  -4.7891  -4.7600
    -4.7178  -4.6841  -4.5090  -4.4731  -4.4437  -4.4222  -4.3532  -4.3387
    -4.3079  -4.2997  -4.1447  -4.1219  -4.0945  -4.0536  -3.7916  -3.7852
    -3.7790  -3.7562  -3.7034  -3.6826  -3.6708  -3.6418  -3.6326  -3.6244
    -3.6002  -3.5120  -3.4617  -3.4433  -3.4226  -3.4087  -3.3444  -3.3205
    -3.2850  -3.2262  -3.2083  -3.0772  -3.0561  -3.0374  -2.8678  -2.6164
    -0.7143  -0.6135  -0.5634  -0.5479  -0.0403   0.1280   0.2189   0.2252
     0.2473   0.4846   0.5322   0.6396   0.6726   0.6986   0.7206   0.7435
     0.7532   0.8185   0.9100   0.9649   1.0656   1.1234   1.1892   1.2600
     1.4544   1.6757   1.7693   1.8133   1.9306   1.9501   1.9823   2.0070
     2.2468   2.2767   2.2843   2.3383   2.4579   2.5445   2.7516   2.7612
     2.7723   2.8572   2.8954   2.9267   3.0192   3.0420   3.0570   3.0882
     3.1169   3.1582   3.1975   3.2165   3.2896   3.3330   3.4911   3.5782
     3.6156   3.6218   3.6981   3.7520   3.8023   3.8786   3.9330   4.0124
     4.0353   4.0835   4.1551   4.2021   4.2442   4.2546   4.3232   4.3781
     4.4139   4.4566   4.4842   4.5317   4.5652   4.5986   4.6320   4.6476
     4.7379   4.8038

          k = 0.4375-0.2526-0.2308 ( 96066 PWs)   bands (ev):

  -113.9629-113.9593-113.9575-113.9532 -71.4353 -71.4340 -71.4320 -71.4305
   -71.4302 -71.4292 -71.4253 -71.4247 -71.2642 -71.2604 -71.2578 -71.2545
   -22.5476 -19.3549 -18.4582 -18.4249 -18.3611 -18.3492 -17.5411 -17.5381
   -17.5325 -17.5237 -17.1164 -17.1097 -17.1050 -17.0944 -16.9958 -16.9410
   -16.8445 -16.8426 -16.8319 -16.8306 -16.8264 -16.8253 -16.8188 -16.8177
   -16.8100 -16.8064 -16.7860 -16.7742 -16.7053 -16.6945 -15.9624 -15.9538
   -15.7839 -15.6849 -15.6810 -15.6645 -15.5222 -15.4886 -15.2675 -15.2504
   -15.1024 -15.0728 -15.0097 -14.9811 -14.9699 -14.9028 -14.8678 -12.5296
   -12.4026 -12.1433 -12.1293 -11.4087 -10.8182 -10.7134 -10.4460 -10.4355
   -10.1101  -9.2852  -9.2267  -9.0164  -9.0083  -8.5565  -8.5413  -8.5273
    -8.5203  -8.3324  -8.1897  -8.1678  -8.1476  -8.1243  -8.0718  -8.0535
    -7.9483  -7.9383  -7.7862  -7.4894  -7.3614  -7.2928  -7.2801  -6.8807
    -6.8637  -6.7342  -6.7294  -6.5849  -6.4814  -6.1223  -6.1130  -5.9935
    -5.9888  -5.9762  -5.8894  -5.8547  -5.7748  -5.7451  -5.6453  -5.6231
    -5.5735  -5.5614  -5.4746  -5.4653  -5.4611  -5.4453  -5.3179  -5.2854
    -5.2114  -5.1874  -5.1595  -5.0822  -5.0569  -5.0384  -4.7913  -4.7757
    -4.7406  -4.6860  -4.4868  -4.4803  -4.4679  -4.4335  -4.3615  -4.3490
    -4.3173  -4.3033  -4.1298  -4.0957  -4.0721  -4.0610  -3.7980  -3.7843
    -3.7659  -3.7580  -3.7129  -3.6779  -3.6575  -3.6526  -3.6310  -3.6103
    -3.5767  -3.5634  -3.4719  -3.4589  -3.4335  -3.3876  -3.3486  -3.2940
    -3.2457  -3.2310  -3.2036  -3.1203  -3.0069  -2.9667  -2.9526  -2.6164
    -0.6690  -0.6617  -0.5990  -0.5209   0.0494   0.0584   0.2140   0.2652
     0.3313   0.3545   0.5749   0.6008   0.6725   0.6862   0.7049   0.7238
     0.7789   0.8066   0.9702   1.0159   1.0411   1.0697   1.2183   1.2333
     1.5410   1.5621   1.7184   1.8027   1.9414   1.9530   1.9733   2.0332
     2.2498   2.2792   2.2881   2.3630   2.4493   2.5425   2.7387   2.7627
     2.7848   2.8225   2.8559   2.9421   2.9920   3.0111   3.0539   3.0970
     3.1112   3.1806   3.2070   3.2625   3.3042   3.3711   3.4333   3.5855
     3.6066   3.6599   3.7324   3.7680   3.8825   3.9138   3.9296   3.9531
     3.9996   4.0601   4.1195   4.1817   4.2162   4.2963   4.3444   4.3894
     4.4399   4.4643   4.4886   4.5086   4.5519   4.5761   4.6273   4.6834
     4.7439   4.8056

          k =-0.0625 0.1083 0.2308 ( 96006 PWs)   bands (ev):

  -113.9629-113.9593-113.9575-113.9532 -71.4353 -71.4340 -71.4320 -71.4305
   -71.4302 -71.4292 -71.4253 -71.4247 -71.2642 -71.2604 -71.2578 -71.2545
   -22.5476 -19.3549 -18.5166 -18.3627 -18.3612 -18.3440 -17.5502 -17.5463
   -17.5397 -17.5048 -17.1183 -17.1090 -17.0817 -17.0718 -17.0682 -16.8616
   -16.8610 -16.8530 -16.8321 -16.8314 -16.8288 -16.8242 -16.8223 -16.8149
   -16.8064 -16.8052 -16.7932 -16.7213 -16.7206 -16.7055 -16.0323 -16.0202
   -16.0172 -15.5924 -15.5808 -15.5783 -15.4356 -15.4230 -15.3078 -15.2874
   -15.2846 -15.0757 -14.9539 -14.9474 -14.9403 -14.8374 -14.8238 -12.7933
   -12.1741 -12.1703 -12.1469 -11.4092 -11.0079 -10.5089 -10.4978 -10.4723
   -10.1109  -9.3898  -9.1265  -9.1251  -9.1087  -8.4455  -8.4389  -8.4203
    -8.3703  -8.3407  -8.3245  -8.1301  -8.1209  -8.1072  -7.8680  -7.8410
    -7.8346  -7.7835  -7.7669  -7.7302  -7.2325  -7.2010  -7.1836  -7.0457
    -7.0361  -7.0287  -7.0133  -6.5846  -6.4826  -6.2290  -6.2255  -6.2204
    -5.9675  -5.9586  -5.9528  -5.9012  -5.7349  -5.6565  -5.6500  -5.6452
    -5.6071  -5.5615  -5.5427  -5.4336  -5.4297  -5.4208  -5.2318  -5.2208
    -5.2026  -5.1884  -5.1776  -4.9453  -4.9358  -4.9278  -4.8023  -4.7964
    -4.7869  -4.5956  -4.5451  -4.5302  -4.5241  -4.4993  -4.4680  -4.4567
    -4.4326  -4.4225  -4.0929  -4.0682  -4.0639  -3.9109  -3.9074  -3.9010
    -3.7959  -3.7389  -3.7131  -3.6448  -3.6398  -3.6286  -3.5960  -3.5818
    -3.5717  -3.5193  -3.5113  -3.4952  -3.4172  -3.3865  -3.3517  -3.1876
    -3.1804  -3.1673  -3.0116  -3.0062  -2.9731  -2.8109  -2.7707  -2.6159
    -1.0008  -0.6096  -0.5860  -0.5806  -0.0332   0.2178   0.2577   0.2672
     0.3217   0.3348   0.3462   0.5383   0.5603   0.5820   0.7435   0.7615
     0.7662   0.7735   0.7792   1.0595   1.1991   1.2192   1.2253   1.2959
     1.5406   1.5495   1.5766   1.9434   2.0070   2.0746   2.0886   2.0950
     2.1133   2.3563   2.3833   2.4071   2.4315   2.5308   2.7380   2.7531
     2.7591   2.7750   2.8078   2.8145   2.9205   2.9442   2.9591   2.9822
     3.2087   3.2276   3.2535   3.3222   3.4643   3.5373   3.5554   3.5925
     3.6365   3.7100   3.8181   3.8253   3.8932   3.9268   3.9581   4.0038
     4.0164   4.0378   4.0624   4.0784   4.1146   4.1502   4.2263   4.2393
     4.2607   4.2638   4.2892   4.3288   4.4006   4.4639   4.5260   4.5440
     4.5654   4.6976

          k = 0.1250 0.0000-0.2308 ( 96006 PWs)   bands (ev):

  -113.9629-113.9593-113.9575-113.9532 -71.4353 -71.4340 -71.4320 -71.4305
   -71.4302 -71.4292 -71.4253 -71.4247 -71.2642 -71.2604 -71.2578 -71.2545
   -22.5476 -19.3549 -18.5166 -18.3648 -18.3586 -18.3445 -17.5505 -17.5457
   -17.5399 -17.5049 -17.1166 -17.1109 -17.0808 -17.0731 -17.0675 -16.8630
   -16.8575 -16.8551 -16.8321 -16.8316 -16.8289 -16.8238 -16.8223 -16.8150
   -16.8062 -16.8054 -16.7932 -16.7240 -16.7170 -16.7064 -16.0307 -16.0227
   -16.0163 -15.5942 -15.5806 -15.5767 -15.4366 -15.4220 -15.3050 -15.2933
   -15.2816 -15.0755 -14.9543 -14.9468 -14.9406 -14.8364 -14.8249 -12.7933
   -12.1757 -12.1673 -12.1483 -11.4092 -11.0079 -10.5093 -10.4954 -10.4745
   -10.1108  -9.3898  -9.1293  -9.1221  -9.1091  -8.4471  -8.4355  -8.4220
    -8.3711  -8.3378  -8.3264  -8.1278  -8.1195  -8.1115  -7.8698  -7.8398
    -7.8344  -7.7851  -7.7585  -7.7362  -7.2300  -7.2002  -7.1870  -7.0479
    -7.0375  -7.0226  -7.0159  -6.5844  -6.4824  -6.2281  -6.2252  -6.2220
    -5.9670  -5.9602  -5.9515  -5.9008  -5.7343  -5.6599  -5.6503  -5.6419
    -5.6078  -5.5634  -5.5403  -5.4334  -5.4286  -5.4228  -5.2308  -5.2223
    -5.2012  -5.1890  -5.1775  -4.9449  -4.9348  -4.9297  -4.8017  -4.7966
    -4.7870  -4.5994  -4.5422  -4.5322  -4.5160  -4.5042  -4.4718  -4.4458
    -4.4390  -4.4235  -4.0930  -4.0706  -4.0613  -3.9104  -3.9093  -3.8996
    -3.7961  -3.7365  -3.7152  -3.6459  -3.6395  -3.6292  -3.5925  -3.5824
    -3.5730  -3.5195  -3.5060  -3.4982  -3.4223  -3.3836  -3.3521  -3.1945
    -3.1733  -3.1668  -3.0162  -3.0043  -2.9714  -2.8096  -2.7722  -2.6159
    -1.0006  -0.6126  -0.5848  -0.5787  -0.0332   0.2176   0.2563   0.2697
     0.3245   0.3333   0.3438   0.5398   0.5601   0.5814   0.7431   0.7596
     0.7672   0.7736   0.7803   1.0595   1.1994   1.2139   1.2301   1.2960
     1.5342   1.5593   1.5735   1.9425   2.0098   2.0684   2.0883   2.0985
     2.1112   2.3542   2.3924   2.4041   2.4249   2.5380   2.7365   2.7489
     2.7618   2.7797   2.8018   2.8164   2.9166   2.9417   2.9613   2.9859
     3.1981   3.2264   3.2558   3.3278   3.4677   3.5342   3.5662   3.6059
     3.6315   3.7069   3.8104   3.8283   3.8788   3.9312   3.9652   3.9938
     4.0199   4.0346   4.0653   4.0916   4.1170   4.1500   4.2225   4.2379
     4.2499   4.2663   4.2888   4.3381   4.4186   4.4521   4.5071   4.5521
     4.5776   4.6984

          k =-0.0625 0.2526 0.2308 ( 96096 PWs)   bands (ev):

  -113.9629-113.9593-113.9575-113.9532 -71.4353 -71.4340 -71.4320 -71.4305
   -71.4302 -71.4292 -71.4253 -71.4247 -71.2642 -71.2604 -71.2578 -71.2545
   -22.5476 -19.3549 -18.5026 -18.3758 -18.3643 -18.3451 -17.5470 -17.5446
   -17.5364 -17.5113 -17.1172 -17.0949 -17.0857 -17.0806 -17.0746 -16.8753
   -16.8582 -16.8453 -16.8321 -16.8309 -16.8280 -16.8247 -16.8219 -16.8157
   -16.8073 -16.8055 -16.7921 -16.7398 -16.7205 -16.6969 -16.0181 -15.9902
   -15.9607 -15.6297 -15.6051 -15.5678 -15.4908 -15.4410 -15.2996 -15.2650
   -15.2401 -15.0758 -14.9659 -14.9499 -14.9348 -14.8781 -14.8358 -12.7254
   -12.2253 -12.1741 -12.1303 -11.4090 -10.9629 -10.5548 -10.4964 -10.4458
   -10.1110  -9.3652  -9.1462  -9.1052  -9.0644  -8.5060  -8.4635  -8.4413
    -8.4205  -8.3322  -8.2948  -8.1651  -8.1549  -8.1140  -7.9187  -7.8998
    -7.8724  -7.8480  -7.7815  -7.6696  -7.2912  -7.2327  -7.1949  -6.9651
    -6.9414  -6.9302  -6.9207  -6.5855  -6.4827  -6.1839  -6.1811  -6.1730
    -5.9763  -5.9705  -5.9309  -5.8722  -5.7364  -5.6529  -5.6451  -5.6380
    -5.6306  -5.5768  -5.5113  -5.4448  -5.4332  -5.4209  -5.2475  -5.2378
    -5.2282  -5.2033  -5.1918  -4.9880  -4.9558  -4.9508  -4.8163  -4.8008
    -4.7859  -4.6308  -4.5472  -4.5114  -4.5009  -4.4799  -4.4313  -4.3975
    -4.3913  -4.3704  -4.0783  -4.0550  -4.0459  -3.8918  -3.8688  -3.8607
    -3.8519  -3.7488  -3.6926  -3.6686  -3.6462  -3.6343  -3.6150  -3.5828
    -3.5734  -3.5293  -3.5110  -3.4792  -3.4650  -3.4323  -3.3490  -3.2125
    -3.2020  -3.1699  -3.0971  -3.0137  -2.9616  -2.9463  -2.8230  -2.6157
    -0.8574  -0.6437  -0.5951  -0.5397   0.0613   0.1426   0.1953   0.2861
     0.3404   0.3972   0.4737   0.5179   0.5608   0.6315   0.7008   0.7281
     0.7608   0.7850   0.7967   1.0663   1.1110   1.1945   1.2157   1.2875
     1.5221   1.5737   1.6025   1.8872   1.9913   2.0210   2.0321   2.0409
[...]
    -0.7043  -0.6495  -0.6009  -0.5207  -0.0018   0.1483   0.1810   0.2565
     0.2693   0.4763   0.5237   0.6208   0.6515   0.6816   0.7037   0.7240
     0.7348   0.8141   0.9047   0.9498   1.0595   1.1656   1.2000   1.2706
     1.4708   1.6566   1.7053   1.8391   1.9356   1.9506   1.9679   2.0342
     2.2587   2.3033   2.3232   2.3644   2.4373   2.5479   2.7272   2.7378
     2.7679   2.8211   2.8874   2.9340   2.9767   2.9853   3.0343   3.0741
     3.1686   3.1911   3.2303   3.2576   3.2919   3.4454   3.4791   3.5116
     3.5725   3.6783   3.7188   3.7359   3.8000   3.9450   4.0011   4.0126
     4.0366   4.0761   4.1208   4.1937   4.2185   4.2591   4.3000   4.3382
     4.3490   4.4333   4.4714   4.5117   4.5647   4.5947   4.6048   4.6453
     4.6865   4.7727

          k =-0.1250 0.4330 0.2308 ( 96096 PWs)   bands (ev):

  -113.9629-113.9593-113.9575-113.9532 -71.4353 -71.4340 -71.4320 -71.4305
   -71.4302 -71.4292 -71.4253 -71.4247 -71.2642 -71.2604 -71.2578 -71.2545
   -22.5476 -19.3549 -18.4696 -18.4066 -18.3755 -18.3409 -17.5422 -17.5408
   -17.5313 -17.5215 -17.1161 -17.1128 -17.1002 -17.0920 -17.0154 -16.9107
   -16.8637 -16.8355 -16.8319 -16.8296 -16.8267 -16.8251 -16.8217 -16.8171
   -16.8089 -16.8056 -16.7886 -16.7651 -16.7342 -16.6716 -15.9961 -15.9194
   -15.8429 -15.7075 -15.6268 -15.6151 -15.5466 -15.4827 -15.2905 -15.2188
   -15.1506 -15.0760 -14.9944 -14.9752 -14.9446 -14.9169 -14.8604 -12.5770
   -12.3338 -12.2111 -12.0886 -11.4087 -10.8554 -10.6526 -10.5250 -10.3850
   -10.1109  -9.3050  -9.1894  -9.0957  -8.9622  -8.5669  -8.5479  -8.5096
    -8.4618  -8.3326  -8.2187  -8.2087  -8.1404  -8.1207  -8.0621  -7.9917
    -7.9485  -7.9372  -7.7887  -7.5273  -7.3762  -7.2805  -7.2287  -6.8855
    -6.8372  -6.7909  -6.7575  -6.5871  -6.4821  -6.1243  -6.0865  -6.0564
    -5.9948  -5.9743  -5.8808  -5.8706  -5.7498  -5.7380  -5.6388  -5.6252
    -5.5871  -5.5734  -5.4847  -5.4555  -5.4413  -5.4257  -5.3095  -5.2917
    -5.2095  -5.2054  -5.1914  -5.0596  -5.0407  -5.0376  -4.7887  -4.7786
    -4.7506  -4.6566  -4.5074  -4.5035  -4.4541  -4.4299  -4.3763  -4.3480
    -4.3359  -4.3198  -4.0946  -4.0783  -4.0571  -4.0402  -3.8387  -3.8014
    -3.7769  -3.7569  -3.7511  -3.6655  -3.6512  -3.6465  -3.6335  -3.6045
    -3.5493  -3.5160  -3.5067  -3.4928  -3.4549  -3.4005  -3.3282  -3.2567
    -3.2239  -3.2030  -3.1940  -3.1765  -3.0481  -2.9372  -2.8800  -2.6157
    -0.7019  -0.6520  -0.5989  -0.5241  -0.0018   0.1465   0.1849   0.2557
     0.2687   0.4762   0.5175   0.6207   0.6522   0.6822   0.7079   0.7181
     0.7336   0.8155   0.9054   0.9515   1.0620   1.1650   1.1997   1.2679
     1.4742   1.6594   1.7056   1.8382   1.9366   1.9513   1.9690   2.0302
     2.2656   2.3049   2.3177   2.3613   2.4658   2.5165   2.7248   2.7484
     2.7753   2.8187   2.8984   2.9293   2.9509   2.9971   3.0308   3.0485
     3.1521   3.2108   3.2336   3.2512   3.3171   3.4419   3.4892   3.5304
     3.6187   3.6594   3.6860   3.7321   3.8014   3.9106   3.9543   4.0142
     4.0528   4.0802   4.0878   4.2091   4.2398   4.2495   4.3063   4.3378
     4.3738   4.4311   4.4687   4.5331   4.5433   4.5826   4.6191   4.6363
     4.6825   4.7437

          k =-0.3125-0.1804 0.2308 ( 96048 PWs)   bands (ev):

  -113.9629-113.9593-113.9575-113.9532 -71.4353 -71.4340 -71.4320 -71.4305
   -71.4302 -71.4292 -71.4253 -71.4247 -71.2642 -71.2604 -71.2578 -71.2545
   -22.5476 -19.3549 -18.4866 -18.3955 -18.3595 -18.3489 -17.5455 -17.5394
   -17.5354 -17.5173 -17.1143 -17.1019 -17.0992 -17.0845 -17.0481 -16.8976
   -16.8480 -16.8458 -16.8323 -16.8305 -16.8286 -16.8232 -16.8220 -16.8158
   -16.8078 -16.8064 -16.7900 -16.7585 -16.7064 -16.7008 -15.9875 -15.9815
   -15.8934 -15.6536 -15.6438 -15.5546 -15.5497 -15.4583 -15.2783 -15.2675
   -15.1846 -15.0741 -14.9741 -14.9648 -14.9221 -14.9169 -14.8521 -12.6523
   -12.2918 -12.1468 -12.1390 -11.4087 -10.9116 -10.6161 -10.4634 -10.4454
   -10.1109  -9.3369  -9.1779  -9.0526  -9.0473  -8.5369  -8.5067  -8.4678
    -8.4660  -8.3306  -8.2530  -8.1913  -8.1461  -8.1302  -7.9785  -7.9720
    -7.9036  -7.8972  -7.7770  -7.6067  -7.2840  -7.2704  -7.2504  -6.9293
    -6.8914  -6.8293  -6.8277  -6.5848  -6.4816  -6.1516  -6.1406  -6.1097
    -5.9934  -5.9645  -5.9112  -5.8549  -5.7380  -5.6867  -5.6618  -5.6299
    -5.6070  -5.5763  -5.4822  -5.4593  -5.4450  -5.4305  -5.2867  -5.2456
    -5.2288  -5.2038  -5.1957  -5.0170  -5.0078  -4.9857  -4.8047  -4.7929
    -4.7745  -4.6572  -4.5304  -4.4986  -4.4775  -4.4551  -4.3894  -4.3778
    -4.3558  -4.3391  -4.0779  -4.0591  -4.0475  -3.9472  -3.8599  -3.8352
    -3.8108  -3.7515  -3.7328  -3.6551  -3.6424  -3.6242  -3.6160  -3.5943
    -3.5778  -3.5716  -3.4910  -3.4750  -3.4447  -3.4368  -3.3541  -3.2488
    -3.2100  -3.1780  -3.1704  -3.0817  -2.9729  -2.9618  -2.8916  -2.6154
    -0.7381  -0.6484  -0.6406  -0.5088   0.1051   0.1165   0.1403   0.2844
     0.3559   0.3910   0.5297   0.5628   0.5820   0.6843   0.6964   0.7090
     0.7513   0.7979   0.8483   1.0670   1.0806   1.1110   1.2276   1.2698
     1.5378   1.5643   1.6437   1.8470   1.9499   1.9775   1.9865   2.0569
     2.2188   2.3296   2.3562   2.4215   2.4414   2.5492   2.7064   2.7200
     2.7640   2.7838   2.8167   2.9037   2.9475   2.9639   3.0275   3.0775
     3.1055   3.2077   3.2267   3.3493   3.4379   3.4825   3.5037   3.5697
     3.5958   3.6639   3.7148   3.7943   3.8785   3.9382   3.9723   3.9911
     4.0265   4.0709   4.0880   4.1239   4.1660   4.2262   4.2697   4.3150
     4.3387   4.3667   4.4093   4.4725   4.5566   4.5766   4.6037   4.6552
     4.6714   4.7409

          k = 0.0000-0.3608-0.2308 ( 96048 PWs)   bands (ev):

  -113.9629-113.9593-113.9575-113.9532 -71.4353 -71.4340 -71.4320 -71.4305
   -71.4302 -71.4292 -71.4253 -71.4247 -71.2642 -71.2604 -71.2578 -71.2545
   -22.5476 -19.3549 -18.4868 -18.3946 -18.3622 -18.3470 -17.5444 -17.5421
   -17.5340 -17.5171 -17.1156 -17.1050 -17.0956 -17.0842 -17.0482 -16.8980
   -16.8486 -16.8447 -16.8319 -16.8302 -16.8272 -16.8246 -16.8222 -16.8164
   -16.8081 -16.8057 -16.7907 -16.7577 -16.7087 -16.6985 -15.9889 -15.9814
   -15.8924 -15.6517 -15.6439 -15.5541 -15.5507 -15.4595 -15.2847 -15.2617
   -15.1835 -15.0756 -14.9721 -14.9629 -14.9290 -14.9160 -14.8489 -12.6525
   -12.2924 -12.1483 -12.1367 -11.4088 -10.9120 -10.6174 -10.4638 -10.4431
   -10.1112  -9.3370  -9.1772  -9.0546  -9.0446  -8.5375  -8.5066  -8.4688
    -8.4666  -8.3325  -8.2534  -8.1923  -8.1408  -8.1303  -7.9770  -7.9693
    -7.9070  -7.8939  -7.7863  -7.6025  -7.2881  -7.2687  -7.2476  -6.9303
    -6.8896  -6.8313  -6.8242  -6.5864  -6.4825  -6.1527  -6.1386  -6.1098
    -5.9937  -5.9652  -5.9098  -5.8579  -5.7434  -5.6829  -5.6548  -5.6276
    -5.6103  -5.5759  -5.4858  -5.4593  -5.4454  -5.4276  -5.2896  -5.2497
    -5.2321  -5.2007  -5.1917  -5.0211  -5.0028  -4.9863  -4.8051  -4.7923
    -4.7715  -4.6544  -4.5309  -4.4963  -4.4776  -4.4603  -4.3929  -4.3757
    -4.3606  -4.3347  -4.0774  -4.0575  -4.0526  -3.9473  -3.8601  -3.8364
    -3.8094  -3.7525  -3.7326  -3.6597  -3.6396  -3.6222  -3.6143  -3.5960
    -3.5755  -3.5713  -3.4887  -3.4784  -3.4580  -3.4329  -3.3470  -3.2460
    -3.2037  -3.1812  -3.1724  -3.0812  -2.9746  -2.9591  -2.8902  -2.6155
    -0.7390  -0.6466  -0.6383  -0.5123   0.1037   0.1184   0.1404   0.2850
     0.3552   0.3867   0.5261   0.5611   0.5845   0.6827   0.6984   0.7099
     0.7541   0.7927   0.8498   1.0710   1.0797   1.1100   1.2255   1.2701
     1.5379   1.5644   1.6444   1.8496   1.9504   1.9789   1.9917   2.0542
     2.2208   2.3268   2.3671   2.4049   2.4687   2.5193   2.6984   2.7260
     2.7679   2.7891   2.8206   2.9262   2.9459   2.9597   3.0384   3.0549
     3.1245   3.2083   3.2298   3.3193   3.4419   3.4573   3.5012   3.5581
     3.6105   3.6485   3.6985   3.7948   3.8860   3.9291   3.9582   3.9913
     4.0409   4.0729   4.1024   4.1421   4.1733   4.2171   4.2708   4.2912
     4.3398   4.3698   4.4024   4.4687   4.5422   4.5689   4.6178   4.6586
     4.6958   4.7587

          k =-0.4375 0.7578 0.2308 ( 96082 PWs)   bands (ev):

  -113.9629-113.9593-113.9575-113.9532 -71.4353 -71.4340 -71.4320 -71.4305
   -71.4302 -71.4292 -71.4253 -71.4247 -71.2642 -71.2604 -71.2578 -71.2545
   -22.5476 -19.3549 -18.4420 -18.4357 -18.3757 -18.3406 -17.5407 -17.5367
   -17.5335 -17.5237 -17.1207 -17.1107 -17.1047 -17.0971 -16.9628 -16.9588
   -16.8622 -16.8347 -16.8321 -16.8292 -16.8275 -16.8246 -16.8217 -16.8157
   -16.8098 -16.8059 -16.7817 -16.7789 -16.7341 -16.6665 -15.9829 -15.9033
   -15.7350 -15.7314 -15.7250 -15.6370 -15.5180 -15.5132 -15.2827 -15.2156
   -15.0858 -15.0635 -15.0509 -14.9974 -14.9472 -14.8965 -14.8833 -12.4557
   -12.4489 -12.2130 -12.0806 -11.4085 -10.7622 -10.7478 -10.5242 -10.3719
   -10.1106  -9.2489  -9.2468  -9.0825  -8.9313  -8.5809  -8.5587  -8.5506
    -8.4727  -8.3312  -8.2192  -8.1569  -8.1457  -8.1239  -8.0955  -8.0516
    -7.9737  -7.9671  -7.7817  -7.4123  -7.4033  -7.3796  -7.2227  -6.8616
    -6.8436  -6.7277  -6.7124  -6.5842  -6.4814  -6.1138  -6.0615  -6.0024
    -5.9596  -5.9423  -5.9379  -5.8374  -5.8219  -5.7470  -5.6442  -5.6151
    -5.5778  -5.5472  -5.4941  -5.4614  -5.4469  -5.4228  -5.3172  -5.2999
    -5.2212  -5.1859  -5.1455  -5.1325  -5.0787  -5.0603  -4.7878  -4.7563
    -4.7175  -4.6902  -4.5061  -4.4731  -4.4461  -4.4204  -4.3520  -4.3412
    -4.3088  -4.2902  -4.1364  -4.1262  -4.0945  -4.0555  -3.7936  -3.7874
    -3.7815  -3.7554  -3.7009  -3.6840  -3.6672  -3.6408  -3.6312  -3.6214
    -3.6024  -3.5145  -3.4530  -3.4392  -3.4239  -3.4055  -3.3581  -3.3272
    -3.2876  -3.2257  -3.2096  -3.0764  -3.0551  -3.0355  -2.8679  -2.6154
    -0.7146  -0.6140  -0.5610  -0.5515  -0.0408   0.1268   0.2232   0.2295
     0.2440   0.4867   0.5321   0.6379   0.6725   0.6954   0.7177   0.7446
     0.7558   0.8233   0.9083   0.9681   1.0619   1.1234   1.1923   1.2585
     1.4584   1.6803   1.7746   1.7981   1.9299   1.9486   1.9795   2.0050
     2.2483   2.2649   2.2889   2.3461   2.4603   2.5544   2.7467   2.7625
     2.7773   2.8492   2.8687   2.9337   2.9894   3.0365   3.0461   3.0630
     3.0989   3.1809   3.2201   3.2460   3.2972   3.3559   3.5408   3.6184
     3.6216   3.6290   3.6934   3.7305   3.8126   3.8474   3.9273   3.9863
     4.0407   4.0840   4.1723   4.1966   4.2338   4.2861   4.3151   4.3412
     4.3995   4.4400   4.4751   4.5051   4.5673   4.5981   4.6396   4.6825
     4.7458   4.7890

          k = 0.8750 0.0000-0.2308 ( 96082 PWs)   bands (ev):

  -113.9629-113.9593-113.9575-113.9532 -71.4353 -71.4340 -71.4320 -71.4305
   -71.4302 -71.4292 -71.4253 -71.4247 -71.2642 -71.2604 -71.2578 -71.2545
   -22.5476 -19.3549 -18.4448 -18.4323 -18.3769 -18.3400 -17.5411 -17.5379
   -17.5319 -17.5237 -17.1209 -17.1118 -17.1061 -17.0951 -16.9666 -16.9552
   -16.8620 -16.8348 -16.8318 -16.8290 -16.8258 -16.8249 -16.8223 -16.8174
   -16.8094 -16.8055 -16.7857 -16.7749 -16.7345 -16.6661 -15.9837 -15.9040
   -15.7350 -15.7285 -15.7251 -15.6359 -15.5198 -15.5140 -15.2850 -15.2139
   -15.0866 -15.0593 -15.0529 -14.9986 -14.9481 -14.9045 -14.8740 -12.4585
   -12.4466 -12.2128 -12.0802 -11.4086 -10.7640 -10.7473 -10.5235 -10.3710
   -10.1110  -9.2549  -9.2403  -9.0820  -8.9302  -8.5824  -8.5582  -8.5515
    -8.4747  -8.3329  -8.2163  -8.1595  -8.1443  -8.1229  -8.0939  -8.0480
    -7.9759  -7.9648  -7.7892  -7.4111  -7.3960  -7.3825  -7.2254  -6.8633
    -6.8400  -6.7273  -6.7103  -6.5875  -6.4816  -6.1142  -6.0617  -6.0013
    -5.9599  -5.9442  -5.9402  -5.8341  -5.8186  -5.7553  -5.6388  -5.6080
    -5.5764  -5.5504  -5.4956  -5.4624  -5.4440  -5.4265  -5.3261  -5.3026
    -5.2210  -5.1847  -5.1409  -5.1260  -5.0812  -5.0619  -4.7847  -4.7560
    -4.7165  -4.6874  -4.5054  -4.4752  -4.4491  -4.4184  -4.3544  -4.3408
    -4.3084  -4.2916  -4.1413  -4.1263  -4.0966  -4.0520  -3.7970  -3.7859
    -3.7810  -3.7574  -3.7049  -3.6819  -3.6665  -3.6382  -3.6293  -3.6219
    -3.6027  -3.5127  -3.4624  -3.4453  -3.4284  -3.4039  -3.3539  -3.3077
    -3.2821  -3.2352  -3.2102  -3.0761  -3.0533  -3.0357  -2.8662  -2.6156
    -0.7127  -0.6108  -0.5636  -0.5538  -0.0407   0.1271   0.2219   0.2310
     0.2428   0.4834   0.5268   0.6400   0.6723   0.6973   0.7210   0.7446
     0.7484   0.8208   0.9104   0.9684   1.0660   1.1253   1.1876   1.2581
     1.4591   1.6804   1.7825   1.7996   1.9276   1.9567   1.9759   2.0013
     2.2550   2.2607   2.2946   2.3442   2.4771   2.5241   2.7480   2.7625
     2.7924   2.8581   2.8717   2.9355   2.9851   3.0264   3.0464   3.0719
     3.1031   3.1780   3.2213   3.2536   3.2913   3.3400   3.5298   3.5960
     3.6030   3.6304   3.6831   3.7521   3.7693   3.8639   3.9319   3.9928
     4.0400   4.1001   4.1237   4.1902   4.2497   4.2981   4.3322   4.3580
     4.3934   4.4415   4.4958   4.5327   4.5430   4.5963   4.6450   4.6877
     4.7154   4.7874

          k =-0.4375-0.2526 0.2308 ( 96066 PWs)   bands (ev):

  -113.9629-113.9593-113.9575-113.9532 -71.4353 -71.4340 -71.4320 -71.4305
   -71.4302 -71.4292 -71.4253 -71.4247 -71.2642 -71.2604 -71.2578 -71.2545
   -22.5476 -19.3549 -18.4581 -18.4255 -18.3599 -18.3498 -17.5412 -17.5368
   -17.5342 -17.5233 -17.1160 -17.1103 -17.1046 -17.0941 -16.9956 -16.9413
   -16.8444 -16.8429 -16.8322 -16.8296 -16.8281 -16.8243 -16.8219 -16.8154
   -16.8090 -16.8067 -16.7853 -16.7755 -16.7022 -16.6971 -15.9603 -15.9569
   -15.7829 -15.6851 -15.6801 -15.6632 -15.5224 -15.4899 -15.2644 -15.2560
   -15.1036 -15.0708 -15.0124 -14.9822 -14.9594 -14.9021 -14.8738 -12.5293
   -12.4030 -12.1400 -12.1324 -11.4085 -10.8190 -10.7141 -10.4488 -10.4308
   -10.1109  -9.2850  -9.2279  -9.0136  -9.0094  -8.5542  -8.5418  -8.5264
    -8.5219  -8.3310  -8.1892  -8.1650  -8.1482  -8.1289  -8.0702  -8.0581
    -7.9501  -7.9421  -7.7788  -7.4883  -7.3609  -7.2944  -7.2797  -6.8803
    -6.8633  -6.7345  -6.7331  -6.5841  -6.4814  -6.1185  -6.1105  -5.9931
    -5.9886  -5.9781  -5.8859  -5.8549  -5.7753  -5.7451  -5.6465  -5.6248
    -5.5738  -5.5636  -5.4758  -5.4646  -5.4597  -5.4414  -5.3182  -5.2891
    -5.2097  -5.1903  -5.1634  -5.0845  -5.0564  -5.0399  -4.7899  -4.7707
    -4.7428  -4.6908  -4.4843  -4.4790  -4.4673  -4.4366  -4.3574  -4.3543
    -4.3118  -4.2983  -4.1208  -4.1011  -4.0700  -4.0636  -3.8013  -3.7858
    -3.7674  -3.7597  -3.7110  -3.6740  -3.6569  -3.6472  -3.6322  -3.6135
    -3.5754  -3.5623  -3.4688  -3.4547  -3.4273  -3.3975  -3.3522  -3.3038
    -3.2485  -3.2315  -3.2034  -3.1188  -3.0062  -2.9639  -2.9538  -2.6152
    -0.6680  -0.6637  -0.5991  -0.5222   0.0498   0.0563   0.2178   0.2651
     0.3313   0.3593   0.5750   0.5977   0.6712   0.6872   0.7025   0.7196
     0.7842   0.8106   0.9726   1.0155   1.0385   1.0707   1.2182   1.2326
     1.5448   1.5685   1.7166   1.7929   1.9423   1.9498   1.9697   2.0314
     2.2542   2.2678   2.2899   2.3699   2.4514   2.5550   2.7303   2.7667
     2.7901   2.8162   2.8526   2.9102   2.9897   3.0037   3.0333   3.0591
     3.0979   3.1905   3.2117   3.2869   3.3394   3.4280   3.4964   3.6042
     3.6158   3.6557   3.7376   3.7468   3.8372   3.9111   3.9369   3.9650
     4.0066   4.0281   4.1038   4.1614   4.2687   4.2835   4.3376   4.3824
     4.4266   4.4602   4.4848   4.4952   4.5280   4.5851   4.6229   4.6845
     4.7482   4.7827

          k = 0.0000-0.5052-0.2308 ( 96066 PWs)   bands (ev):

  -113.9629-113.9593-113.9575-113.9532 -71.4353 -71.4340 -71.4320 -71.4305
   -71.4302 -71.4292 -71.4253 -71.4247 -71.2642 -71.2604 -71.2578 -71.2545
   -22.5476 -19.3549 -18.4587 -18.4242 -18.3626 -18.3477 -17.5411 -17.5389
   -17.5322 -17.5232 -17.1163 -17.1114 -17.1060 -17.0919 -16.9961 -16.9410
   -16.8454 -16.8415 -16.8318 -16.8293 -16.8259 -16.8249 -16.8228 -16.8170
   -16.8089 -16.8059 -16.7877 -16.7732 -16.7046 -16.6946 -15.9631 -15.9557
   -15.7819 -15.6843 -15.6789 -15.6622 -15.5240 -15.4911 -15.2731 -15.2481
   -15.1017 -15.0730 -15.0090 -14.9821 -14.9639 -14.9069 -14.8668 -12.5298
   -12.4032 -12.1416 -12.1301 -11.4087 -10.8197 -10.7149 -10.4493 -10.4284
   -10.1113  -9.2857  -9.2268  -9.0166  -9.0047  -8.5549  -8.5439  -8.5269
    -8.5222  -8.3329  -8.1907  -8.1650  -8.1477  -8.1232  -8.0719  -8.0531
    -7.9527  -7.9383  -7.7889  -7.4842  -7.3562  -7.2994  -7.2793  -6.8820
    -6.8597  -6.7363  -6.7286  -6.5875  -6.4819  -6.1200  -6.1094  -5.9932
    -5.9897  -5.9774  -5.8893  -5.8523  -5.7712  -5.7540  -5.6397  -5.6187
    -5.5740  -5.5636  -5.4771  -5.4687  -5.4605  -5.4395  -5.3253  -5.2942
    -5.2109  -5.1882  -5.1579  -5.0785  -5.0598  -5.0405  -4.7843  -4.7740
    -4.7400  -4.6876  -4.4865  -4.4763  -4.4679  -4.4383  -4.3625  -4.3513
    -4.3157  -4.2974  -4.1271  -4.0987  -4.0756  -4.0574  -3.8033  -3.7871
    -3.7662  -3.7603  -3.7129  -3.6770  -3.6557  -3.6461  -3.6299  -3.6137
    -3.5727  -3.5619  -3.4766  -3.4537  -3.4364  -3.3991  -3.3399  -3.2923
    -3.2510  -3.2267  -3.2092  -3.1193  -3.0055  -2.9640  -2.9503  -2.6155
    -0.6668  -0.6595  -0.6016  -0.5250   0.0494   0.0572   0.2184   0.2650
     0.3320   0.3538   0.5697   0.5950   0.6729   0.6876   0.7058   0.7210
     0.7809   0.8069   0.9736   1.0183   1.0396   1.0701   1.2158   1.2330
     1.5486   1.5654   1.7216   1.7971   1.9378   1.9594   1.9680   2.0284
     2.2566   2.2697   2.2957   2.3631   2.4763   2.5174   2.7354   2.7737
     2.7833   2.8419   2.8453   2.9213   2.9907   3.0100   3.0286   3.0504
     3.1056   3.2002   3.2109   3.2775   3.3484   3.3924   3.4542   3.5986
     3.6234   3.6695   3.7041   3.7376   3.8553   3.8971   3.9266   3.9591
     4.0047   4.0608   4.1212   4.1512   4.2326   4.2787   4.3428   4.3988
     4.4243   4.4648   4.5006   4.5113   4.5477   4.5969   4.6064   4.6966
     4.7272   4.8109

     the Fermi energy is    -1.8801 ev
     (compare with:    -1.8970 eV, computed in scf)

     Writing all to output data dir ./test.save/ :
     XML data file, pseudopotentials, collected wavefunctions
 
     init_run     :      1.02s CPU      1.21s WALL (       1 calls)
     electrons    :  24251.31s CPU  24618.69s WALL (       1 calls)

     Called by init_run:
     wfcinit      :      0.00s CPU      0.01s WALL (       1 calls)
     potinit      :      0.06s CPU      0.09s WALL (       1 calls)
     hinit0       :      0.05s CPU      0.07s WALL (       1 calls)

     Called by electrons:
     c_bands      :  24251.30s CPU  24618.67s WALL (       1 calls)
     v_of_rho     :      0.03s CPU      0.05s WALL (       1 calls)
     newd         :      0.30s CPU      0.40s WALL (       1 calls)

     Called by c_bands:
     init_us_2    :      0.96s CPU      0.98s WALL (      96 calls)
     ccgdiagg     :  24092.50s CPU  24231.47s WALL (     576 calls)
     wfcrot       :    156.99s CPU    158.68s WALL (     576 calls)

     Called by *cgdiagg:
     h_psi        :   9748.98s CPU   9810.45s WALL ( 1710330 calls)
     s_psi        :   7719.59s CPU   7763.40s WALL ( 3420084 calls)

     Called by h_psi:
     h_psi:calbec :   4478.48s CPU   4506.68s WALL ( 1710330 calls)
     vloc_psi     :   1311.02s CPU   1322.78s WALL ( 1710330 calls)
     add_vuspsi   :   3937.97s CPU   3960.92s WALL ( 1710330 calls)
     hs_1psi      :  13500.65s CPU  13580.93s WALL ( 1709754 calls)
     s_1psi       :   7970.63s CPU   8012.38s WALL ( 1709754 calls)

     General routines
     calbec       :   8567.85s CPU   8620.05s WALL ( 3420084 calls)
     fft          :      0.02s CPU      0.03s WALL (      13 calls)
     ffts         :      0.00s CPU      0.00s WALL (       1 calls)
     fftw         :    784.63s CPU    791.84s WALL ( 3707508 calls)
     interpolate  :      0.00s CPU      0.01s WALL (       1 calls)
     davcio       :      0.04s CPU    219.64s WALL (     192 calls)
 
     Parallel routines
 
     PWSCF        :  24266.62s CPU  24644.59s WALL

 
   This run was terminated on:  16:22:51  19Feb2026            

=------------------------------------------------------------------------------=
   JOB DONE.
=------------------------------------------------------------------------------=
