
     Program PWSCF v.7.3.1 starts on 19Feb2026 at  9:12:34 

     This program is part of the open-source Quantum ESPRESSO suite
     for quantum simulation of materials; please cite
         "P. Giannozzi et al., J. Phys.:Condens. Matter 21 395502 (2009);
         "P. Giannozzi et al., J. Phys.:Condens. Matter 29 465901 (2017);
         "P. Giannozzi et al., J. Chem. Phys. 152 154105 (2020);
          URL http://www.quantum-espresso.org", 
     in publications or presentations arising from this work. More details at
     http://www.quantum-espresso.org/quote

     Parallel version (MPI & OpenMP), running on      64 processor cores
     Number of MPI processes:                64
     Threads/MPI process:                     1

     MPI processes distributed on     1 nodes
     501237 MiB available memory on the printing compute node when the environment starts
 
     Waiting for input...
     Reading input from standard input
Warning: card &CELL ignored
Warning: card   PRESS = 0.0, ignored
Warning: card / ignored

     Current dimensions of program PWSCF are:
     Max number of different atomic species (ntypx) = 10
     Max number of k-points (npk) =  40000
     Max angular momentum in pseudopotentials (lmaxx) =  4

     IMPORTANT: XC functional enforced from input :
     Exchange-correlation= PBE
                           (   1   4   3   4   0   0   0)
     Any further DFT definition will be discarded
     Please, verify this is what you really want

 
     R & G space division:  proc/nbgrp/npool/nimage =      64
     Subspace diagonalization in iterative solution of the eigenvalue problem:
     one sub-group per band group will be used
     ELPA distributed-memory algorithm (size of sub-group:  3*  3 procs)

 
     Parallelization info
     --------------------
     sticks:   dense  smooth     PW     G-vecs:    dense   smooth      PW
     Min         180      90     24                33956    12002    1671
     Max         181      91     26                33969    12012    1680
     Sum       11557    5773   1555              2173495   768463  107317
 
     Using Slab Decomposition
 


     bravais-lattice index     =            4
     lattice parameter (alat)  =      22.8869  a.u.
     unit-cell volume          =   22488.0312 (a.u.)^3
     number of atoms/cell      =           49
     number of atomic types    =            8
     number of electrons       =       336.00
     number of Kohn-Sham states=          250
     kinetic-energy cutoff     =      40.0000  Ry
     charge density cutoff     =     320.0000  Ry
     scf convergence threshold =      1.0E-08
     mixing beta               =       0.3000
     number of iterations used =            8  plain     mixing
     Exchange-correlation= PBE
                           (   1   4   3   4   0   0   0)

     celldm(1)=  22.886890  celldm(2)=   0.000000  celldm(3)=   2.166010
     celldm(4)=   0.000000  celldm(5)=   0.000000  celldm(6)=   0.000000

     crystal axes: (cart. coord. in units of alat)
               a(1) = (   1.000000   0.000000   0.000000 )  
               a(2) = (  -0.500000   0.866025   0.000000 )  
               a(3) = (   0.000000   0.000000   2.166010 )  

     reciprocal axes: (cart. coord. in units 2 pi/alat)
               b(1) = (  1.000000  0.577350  0.000000 )  
               b(2) = (  0.000000  1.154701  0.000000 )  
               b(3) = (  0.000000  0.000000  0.461678 )  


     PseudoPot. # 1 for Cu read from file:
     ./cu_pbe_v1.2.uspp.F.UPF
     MD5 check sum: 6e991ff952a84172a2a52a1c1e996048
     Pseudo is Ultrasoft + core correction, Zval = 19.0
     Generated by new atomic code, or converted to UPF format
     Using radial grid of  867 points,  6 beta functions with: 
                l(1) =   0
                l(2) =   0
                l(3) =   1
                l(4) =   1
                l(5) =   2
                l(6) =   2
     Q(r) pseudized with  8 coefficients,  rinner =    1.150   1.150   1.150
                                                       1.150   1.150

     PseudoPot. # 2 for In read from file:
     ./in_pbe_v1.4.uspp.F.UPF
     MD5 check sum: 90777abd96fbb83f2e67db2a40c566b9
     Pseudo is Ultrasoft + core correction, Zval = 13.0
     Generated by new atomic code, or converted to UPF format
     Using radial grid of  889 points,  6 beta functions with: 
                l(1) =   0
                l(2) =   0
                l(3) =   1
                l(4) =   1
                l(5) =   2
                l(6) =   2
     Q(r) pseudized with  6 coefficients,  rinner =    1.400   1.400   1.400
                                                       1.400   1.400

     PseudoPot. # 3 for P  read from file:
     ./p_pbe_v1.5.uspp.F.UPF
     MD5 check sum: eb82b2c351da08c5f5f8709277dc7ee5
     Pseudo is Ultrasoft + core correction, Zval =  5.0
     Generated by new atomic code, or converted to UPF format
     Using radial grid of  903 points,  6 beta functions with: 
                l(1) =   0
                l(2) =   0
                l(3) =   1
                l(4) =   1
                l(5) =   2
                l(6) =   2
     Q(r) pseudized with  8 coefficients,  rinner =    1.300   1.300   1.300
                                                       1.300   1.300

     PseudoPot. # 4 for S  read from file:
     ./s_pbe_v1.4.uspp.F.UPF
     MD5 check sum: 88d86576ff6df21479756cfb9bdac1df
     Pseudo is Ultrasoft + core correction, Zval =  6.0
     Generated by new atomic code, or converted to UPF format
     Using radial grid of  907 points,  6 beta functions with: 
                l(1) =   0
                l(2) =   0
                l(3) =   1
                l(4) =   1
                l(5) =   2
                l(6) =   2
     Q(r) pseudized with  8 coefficients,  rinner =    1.300   1.300   1.300
                                                       1.300   1.300

     PseudoPot. # 5 for C  read from file:
     ./c_pbe_v1.2.uspp.F.UPF
     MD5 check sum: d1aef80898a10debaa0f26306b886e00
     Pseudo is Ultrasoft + core correction, Zval =  4.0
     Generated by new atomic code, or converted to UPF format
     Using radial grid of  721 points,  4 beta functions with: 
                l(1) =   0
                l(2) =   0
                l(3) =   1
                l(4) =   1
     Q(r) pseudized with  8 coefficients,  rinner =    1.100   1.100   1.100


     PseudoPot. # 6 for O  read from file:
     ./o_pbe_v1.2.uspp.F.UPF
     MD5 check sum: 734c27235a0248c51dbae37a1fbe46ec
     Pseudo is Ultrasoft + core correction, Zval =  6.0
     Generated by new atomic code, or converted to UPF format
     Using radial grid of  737 points,  5 beta functions with: 
                l(1) =   0
                l(2) =   0
                l(3) =   1
                l(4) =   1
                l(5) =   2
     Q(r) pseudized with  8 coefficients,  rinner =    0.900   0.900   0.900
                                                       0.900   0.900

     PseudoPot. # 7 for N  read from file:
     ./n_pbe_v1.2.uspp.F.UPF
     MD5 check sum: 95339753478d7afb44899504a8723017
     Pseudo is Ultrasoft + core correction, Zval =  5.0
     Generated by new atomic code, or converted to UPF format
     Using radial grid of  729 points,  4 beta functions with: 
                l(1) =   0
                l(2) =   0
                l(3) =   1
                l(4) =   1
     Q(r) pseudized with  8 coefficients,  rinner =    0.900   0.900   0.900


     PseudoPot. # 8 for H  read from file:
     ./h_pbe_v1.4.uspp.F.UPF
     MD5 check sum: 761ae9a214b05c3daf00ab9f6b793d6f
     Pseudo is Ultrasoft, Zval =  1.0
     Generated by new atomic code, or converted to UPF format
     Using radial grid of  615 points,  2 beta functions with: 
                l(1) =   0
                l(2) =   0
     Q(r) pseudized with  8 coefficients,  rinner =    0.700

     atomic species   valence    mass     pseudopotential
     Cu               19.00    63.54600     Cu( 1.00)
     In               13.00   114.81800     In( 1.00)
     P                 5.00    30.97400     P ( 1.00)
     S                 6.00    32.06500     S ( 1.00)
     C                 4.00    12.01100     C ( 1.00)
     O                 6.00    15.99900     O ( 1.00)
     N                 5.00    14.00670     N ( 1.00)
     H                 1.00     1.00780     H ( 1.00)

     No symmetry found



   Cartesian axes

     site n.     atom                  positions (alat units)
         1        Cu     tau(   1) = (   0.2605789   0.1376236   0.9443301  )
         2        Cu     tau(   2) = (   0.0095039   0.5705736   0.9436663  )
         3        Cu     tau(   3) = (   0.7599048   0.1378478   0.9439182  )
         4        Cu     tau(   4) = (   0.5101399   0.5708522   0.9435100  )
         5        In     tau(   5) = (   1.0111715  -0.0063874   1.0740552  )
         6        In     tau(   6) = (   0.7605840   0.4268787   1.0716279  )
         7        In     tau(   7) = (   0.5091198  -0.0069521   1.0740736  )
         8        In     tau(   8) = (   0.2612715   0.4265247   1.0715964  )
         9        P      tau(   9) = (   0.0104936   0.2819282   0.9630834  )
        10        P      tau(  10) = (  -0.2396607   0.7152470   0.9636761  )
        11        P      tau(  11) = (   0.5105277   0.2820182   0.9621266  )
        12        P      tau(  12) = (   0.2602918   0.7153020   0.9648393  )
        13        P      tau(  13) = (   0.0107410   0.2824722   1.1489092  )
        14        P      tau(  14) = (  -0.2389876   0.7154761   1.1496741  )
        15        P      tau(  15) = (   0.5110100   0.2821863   1.1479557  )
        16        P      tau(  16) = (   0.2605337   0.7151734   1.1507632  )
        17        S      tau(  17) = (  -0.0596262   0.1354089   0.9126321  )
        18        S      tau(  18) = (  -0.3095546   0.5691644   0.9112707  )
        19        S      tau(  19) = (   0.4407197   0.1355395   0.9112604  )
        20        S      tau(  20) = (   0.1901437   0.5691818   0.9128101  )
        21        S      tau(  21) = (   0.4217328   0.7281116   0.9129029  )
        22        S      tau(  22) = (   0.6721140   0.2949780   0.9105341  )
        23        S      tau(  23) = (  -0.0781683   0.7280632   0.9116949  )
        24        S      tau(  24) = (   0.1719731   0.2944846   0.9111612  )
        25        S      tau(  25) = (  -0.3316456   0.8488396   0.9122887  )
        26        S      tau(  26) = (  -0.0814621   0.4152295   0.9107509  )
        27        S      tau(  27) = (   0.1681200   0.8485808   0.9133290  )
        28        S      tau(  28) = (   0.4187655   0.4156989   0.9103290  )
        29        S      tau(  29) = (   0.3338133   0.8593782   1.1941717  )
        30        S      tau(  30) = (   0.5830219   0.4268207   1.1915866  )
        31        S      tau(  31) = (  -0.1665659   0.8590100   1.1951371  )
        32        S      tau(  32) = (   0.0833619   0.4273768   1.1914326  )
        33        S      tau(  33) = (   0.0995343   0.1478621   1.1938043  )
        34        S      tau(  34) = (  -0.1505562   0.5796069   1.1920369  )
        35        S      tau(  35) = (   0.5999463   0.1474275   1.1915630  )
        36        S      tau(  36) = (   0.3492070   0.5795582   1.1935788  )
        37        S      tau(  37) = (  -0.4004810   0.7056961   1.1931345  )
        38        S      tau(  38) = (  -0.1506582   0.2735965   1.1925885  )
        39        S      tau(  39) = (   0.0994410   0.7065023   1.1949628  )
        40        S      tau(  40) = (   0.3492319   0.2721088   1.1908235  )
        41        C      tau(  41) = (   0.2033664   0.1902803   1.4671327  )
        42        C      tau(  42) = (   0.0964508   0.1592580   1.5245436  )
        43        O      tau(  43) = (   0.2687107   0.1204809   1.4326901  )
        44        N      tau(  44) = (   0.2219821   0.3010319   1.4553616  )
        45        H      tau(  45) = (   0.1632093   0.3579432   1.4746230  )
        46        H      tau(  46) = (   0.2871579   0.3254147   1.4077065  )
        47        H      tau(  47) = (   0.1127283   0.0906667   1.5818060  )
        48        H      tau(  48) = (   0.0379898   0.1292573   1.4614372  )
        49        H      tau(  49) = (   0.0579219   0.2282674   1.5695808  )

     -------------------------------------------------
     Parameters for Dispersion (Grimme-D2) Correction:
     -------------------------------------------------
       atom      VdW radius       C_6     

        Cu         2.952        374.666
        In         3.160       1294.678
        P          3.222        271.980
        S          3.180        193.230
        C          2.744         60.710
        O          2.536         24.284
        N          2.640         42.670
        H          1.892          4.857

     number of k points=    54  Gaussian smearing, width (Ry)=  0.0100
                       cart. coord. in units 2pi/alat
        k(    1) = (   0.0833333   0.1443376  -0.2308392), wk =   0.0370370
        k(    2) = (   0.0833333   0.3367877  -0.2308392), wk =   0.0370370
        k(    3) = (   0.0833333   0.5292377  -0.2308392), wk =   0.0370370
        k(    4) = (   0.0833333  -0.4330127  -0.2308392), wk =   0.0370370
        k(    5) = (   0.0833333  -0.2405626  -0.2308392), wk =   0.0370370
        k(    6) = (   0.0833333  -0.0481125  -0.2308392), wk =   0.0370370
        k(    7) = (   0.2500000   0.4330127  -0.2308392), wk =   0.0370370
        k(    8) = (   0.2500000   0.6254628  -0.2308392), wk =   0.0370370
        k(    9) = (   0.2500000  -0.3367877  -0.2308392), wk =   0.0370370
        k(   10) = (   0.2500000  -0.1443376  -0.2308392), wk =   0.0370370
        k(   11) = (   0.4166667   0.7216878  -0.2308392), wk =   0.0370370
        k(   12) = (   0.4166667  -0.2405626  -0.2308392), wk =   0.0370370
        k(   13) = (  -0.0833333   0.1443376   0.2308392), wk =   0.0370370
        k(   14) = (   0.1666667   0.0000000  -0.2308392), wk =   0.0370370
        k(   15) = (  -0.0833333   0.3367877   0.2308392), wk =   0.0370370
        k(   16) = (  -0.2500000   0.2405626  -0.2308392), wk =   0.0370370
        k(   17) = (   0.3333333   0.0962250  -0.2308392), wk =   0.0370370
        k(   18) = (  -0.2500000  -0.2405626   0.2308392), wk =   0.0370370
        k(   19) = (   0.3333333  -0.0962250   0.2308392), wk =   0.0370370
        k(   20) = (  -0.0833333   0.5292377   0.2308392), wk =   0.0370370
        k(   21) = (  -0.4166667   0.3367877  -0.2308392), wk =   0.0370370
        k(   22) = (   0.5000000   0.1924501  -0.2308392), wk =   0.0370370
        k(   23) = (  -0.4166667  -0.3367877   0.2308392), wk =   0.0370370
        k(   24) = (   0.5000000  -0.1924501   0.2308392), wk =   0.0370370
        k(   25) = (  -0.0833333  -0.4330127   0.2308392), wk =   0.0370370
        k(   26) = (   0.4166667  -0.1443376  -0.2308392), wk =   0.0370370
        k(   27) = (  -0.3333333  -0.2886751  -0.2308392), wk =   0.0370370
        k(   28) = (   0.4166667   0.1443376   0.2308392), wk =   0.0370370
        k(   29) = (  -0.3333333   0.2886751   0.2308392), wk =   0.0370370
        k(   30) = (  -0.0833333  -0.2405626   0.2308392), wk =   0.0370370
        k(   31) = (   0.2500000  -0.0481125  -0.2308392), wk =   0.0370370
        k(   32) = (  -0.1666667  -0.1924501  -0.2308392), wk =   0.0370370
        k(   33) = (   0.2500000   0.0481125   0.2308392), wk =   0.0370370
        k(   34) = (  -0.1666667   0.1924501   0.2308392), wk =   0.0370370
        k(   35) = (  -0.0833333  -0.0481125   0.2308392), wk =   0.0370370
        k(   36) = (   0.0000000  -0.0962250  -0.2308392), wk =   0.0370370
        k(   37) = (  -0.2500000   0.4330127   0.2308392), wk =   0.0370370
        k(   38) = (   0.5000000   0.0000000  -0.2308392), wk =   0.0370370
        k(   39) = (  -0.2500000   0.6254628   0.2308392), wk =   0.0370370
        k(   40) = (  -0.4166667   0.5292377  -0.2308392), wk =   0.0370370
        k(   41) = (   0.6666667   0.0962250  -0.2308392), wk =   0.0370370
        k(   42) = (  -0.4166667  -0.5292377   0.2308392), wk =   0.0370370
        k(   43) = (   0.6666667  -0.0962250   0.2308392), wk =   0.0370370
        k(   44) = (  -0.2500000  -0.3367877   0.2308392), wk =   0.0370370
        k(   45) = (   0.4166667   0.0481125  -0.2308392), wk =   0.0370370
        k(   46) = (  -0.1666667  -0.3849002  -0.2308392), wk =   0.0370370
        k(   47) = (   0.4166667  -0.0481125   0.2308392), wk =   0.0370370
        k(   48) = (  -0.1666667   0.3849002   0.2308392), wk =   0.0370370
        k(   49) = (  -0.2500000  -0.1443376   0.2308392), wk =   0.0370370
        k(   50) = (   0.0000000  -0.2886751  -0.2308392), wk =   0.0370370
        k(   51) = (  -0.4166667   0.7216878   0.2308392), wk =   0.0370370
        k(   52) = (   0.8333333   0.0000000  -0.2308392), wk =   0.0370370
        k(   53) = (  -0.4166667  -0.2405626   0.2308392), wk =   0.0370370
        k(   54) = (   0.0000000  -0.4811252  -0.2308392), wk =   0.0370370

     Dense  grid:  2173495 G-vectors     FFT dimensions: ( 135, 135, 288)

     Smooth grid:   768463 G-vectors     FFT dimensions: (  96,  96, 200)

     Estimated max dynamical RAM per process >     480.28 MB

     Estimated total dynamical RAM >      30.02 GB

     Initial potential from superposition of free atoms

     starting charge     325.9977, renormalised to     336.0000

     negative rho (up, down):  4.886E-03 0.000E+00
     Starting wfcs are  237 randomized atomic wfcs +   13 random wfcs

     total cpu time spent up to now is       18.4 secs

     per-process dynamical memory:   100.6 Mb

     Self-consistent Calculation

     iteration #  1     ecut=    40.00 Ry     beta= 0.30
     Davidson diagonalization with overlap
     ethr =  1.00E-02,  avg # of iterations =  8.6

     negative rho (up, down):  2.840E-03 0.000E+00

     total cpu time spent up to now is      106.2 secs

     total energy              =   -2928.36639950 Ry
     estimated scf accuracy    <      16.60402388 Ry

     iteration #  2     ecut=    40.00 Ry     beta= 0.30
     Davidson diagonalization with overlap
     ethr =  4.94E-03,  avg # of iterations =  5.4

     negative rho (up, down):  2.972E-03 0.000E+00

     total cpu time spent up to now is      180.5 secs

     total energy              =   -2929.05997511 Ry
     estimated scf accuracy    <      43.90671610 Ry

     iteration #  3     ecut=    40.00 Ry     beta= 0.30
     Davidson diagonalization with overlap
     ethr =  4.94E-03,  avg # of iterations =  3.0

     negative rho (up, down):  3.413E-03 0.000E+00

     total cpu time spent up to now is      233.7 secs

     total energy              =   -2934.22751444 Ry
     estimated scf accuracy    <       2.39319183 Ry

     iteration #  4     ecut=    40.00 Ry     beta= 0.30
     Davidson diagonalization with overlap
     ethr =  7.12E-04,  avg # of iterations =  9.3

     negative rho (up, down):  2.299E-03 0.000E+00

     total cpu time spent up to now is      303.2 secs

     total energy              =   -2934.03853656 Ry
     estimated scf accuracy    <       0.71128706 Ry

     iteration #  5     ecut=    40.00 Ry     beta= 0.30
     Davidson diagonalization with overlap
     ethr =  2.12E-04,  avg # of iterations =  5.2

     negative rho (up, down):  2.537E-03 0.000E+00

     total cpu time spent up to now is      363.6 secs

     total energy              =   -2934.14254706 Ry
     estimated scf accuracy    <       0.19718078 Ry

     iteration #  6     ecut=    40.00 Ry     beta= 0.30
     Davidson diagonalization with overlap
     ethr =  5.87E-05,  avg # of iterations = 12.7

     negative rho (up, down):  2.819E-03 0.000E+00

     total cpu time spent up to now is      447.8 secs

     total energy              =   -2934.18600152 Ry
     estimated scf accuracy    <       0.08359850 Ry

     iteration #  7     ecut=    40.00 Ry     beta= 0.30
     Davidson diagonalization with overlap
     ethr =  2.49E-05,  avg # of iterations =  4.0

     negative rho (up, down):  3.210E-03 0.000E+00

     total cpu time spent up to now is      501.3 secs

     total energy              =   -2934.18153563 Ry
     estimated scf accuracy    <       0.03074846 Ry

     iteration #  8     ecut=    40.00 Ry     beta= 0.30
     Davidson diagonalization with overlap
     c_bands:  1 eigenvalues not converged
     c_bands:  1 eigenvalues not converged
     c_bands:  1 eigenvalues not converged
     c_bands:  1 eigenvalues not converged
     ethr =  9.15E-06,  avg # of iterations =  8.0

     negative rho (up, down):  3.393E-03 0.000E+00

     total cpu time spent up to now is      567.1 secs

     total energy              =   -2934.18521095 Ry
     estimated scf accuracy    <       0.00217778 Ry

     iteration #  9     ecut=    40.00 Ry     beta= 0.30
     Davidson diagonalization with overlap
     c_bands:  1 eigenvalues not converged
     c_bands:  1 eigenvalues not converged
     c_bands:  2 eigenvalues not converged
     c_bands:  1 eigenvalues not converged
     c_bands:  1 eigenvalues not converged
     c_bands:  1 eigenvalues not converged
     c_bands:  1 eigenvalues not converged
     c_bands:  1 eigenvalues not converged
     c_bands:  2 eigenvalues not converged
     c_bands:  1 eigenvalues not converged
     c_bands:  1 eigenvalues not converged
     c_bands:  1 eigenvalues not converged
     c_bands:  1 eigenvalues not converged
     ethr =  6.48E-07,  avg # of iterations = 14.1

     negative rho (up, down):  3.502E-03 0.000E+00

     total cpu time spent up to now is      660.3 secs

     total energy              =   -2934.18571271 Ry
     estimated scf accuracy    <       0.00064672 Ry

     iteration # 10     ecut=    40.00 Ry     beta= 0.30
     Davidson diagonalization with overlap
     c_bands:  1 eigenvalues not converged
     c_bands:  1 eigenvalues not converged
     ethr =  1.92E-07,  avg # of iterations =  6.7

     negative rho (up, down):  3.551E-03 0.000E+00

     total cpu time spent up to now is      722.6 secs

     total energy              =   -2934.18584342 Ry
     estimated scf accuracy    <       0.00008326 Ry

     iteration # 11     ecut=    40.00 Ry     beta= 0.30
     Davidson diagonalization with overlap
     ethr =  2.48E-08,  avg # of iterations =  2.4

     negative rho (up, down):  3.589E-03 0.000E+00

     total cpu time spent up to now is      780.2 secs

     total energy              =   -2934.18585481 Ry
     estimated scf accuracy    <       0.00003193 Ry

     iteration # 12     ecut=    40.00 Ry     beta= 0.30
     Davidson diagonalization with overlap
     ethr =  9.50E-09,  avg # of iterations =  2.0

     negative rho (up, down):  3.617E-03 0.000E+00

     total cpu time spent up to now is      830.8 secs

     total energy              =   -2934.18585692 Ry
     estimated scf accuracy    <       0.00000681 Ry

     iteration # 13     ecut=    40.00 Ry     beta= 0.30
     Davidson diagonalization with overlap
     ethr =  2.03E-09,  avg # of iterations =  4.5

     negative rho (up, down):  3.637E-03 0.000E+00

     total cpu time spent up to now is      894.6 secs

     total energy              =   -2934.18585887 Ry
     estimated scf accuracy    <       0.00000135 Ry

     iteration # 14     ecut=    40.00 Ry     beta= 0.30
     Davidson diagonalization with overlap
     ethr =  4.03E-10,  avg # of iterations =  5.2

     negative rho (up, down):  3.652E-03 0.000E+00

     total cpu time spent up to now is      960.2 secs

     total energy              =   -2934.18585927 Ry
     estimated scf accuracy    <       0.00000027 Ry

     iteration # 15     ecut=    40.00 Ry     beta= 0.30
     Davidson diagonalization with overlap
     ethr =  8.01E-11,  avg # of iterations =  5.6

     negative rho (up, down):  3.662E-03 0.000E+00

     total cpu time spent up to now is     1033.3 secs

     total energy              =   -2934.18585941 Ry
     estimated scf accuracy    <       0.00000013 Ry

     iteration # 16     ecut=    40.00 Ry     beta= 0.30
     Davidson diagonalization with overlap
     ethr =  3.82E-11,  avg # of iterations =  2.0

     negative rho (up, down):  3.669E-03 0.000E+00

     total cpu time spent up to now is     1085.9 secs

     total energy              =   -2934.18585945 Ry
     estimated scf accuracy    <       0.00000002 Ry

     iteration # 17     ecut=    40.00 Ry     beta= 0.30
     Davidson diagonalization with overlap
     ethr =  6.42E-12,  avg # of iterations =  5.5

     negative rho (up, down):  3.687E-03 0.000E+00

     total cpu time spent up to now is     1156.3 secs

     End of self-consistent calculation

          k = 0.0833 0.1443-0.2308 ( 95992 PWs)   bands (ev):

  -113.9636-113.9603-113.9583-113.9534 -71.4360 -71.4348 -71.4329 -71.4314
   -71.4310 -71.4300 -71.4255 -71.4250 -71.2649 -71.2613 -71.2586 -71.2548
   -22.5478 -19.3550 -18.5132 -18.3662 -18.3611 -18.3446 -17.5496 -17.5454
   -17.5392 -17.5065 -17.1185 -17.1019 -17.0845 -17.0752 -17.0705 -16.8639
   -16.8611 -16.8507 -16.8321 -16.8314 -16.8290 -16.8235 -16.8224 -16.8151
   -16.8064 -16.8055 -16.7930 -16.7270 -16.7195 -16.7034 -16.0298 -16.0109
   -16.0041 -15.6031 -15.5833 -15.5778 -15.4478 -15.4281 -15.3053 -15.2833
   -15.2731 -15.0757 -14.9567 -14.9450 -14.9425 -14.8435 -14.8305 -12.7767
   -12.1847 -12.1730 -12.1422 -11.4092 -10.9973 -10.5130 -10.5067 -10.4628
   -10.1111  -9.3840  -9.1284  -9.1249  -9.0955  -8.4605  -8.4479  -8.4228
    -8.3812  -8.3384  -8.3183  -8.1477  -8.1245  -8.1101  -7.8765  -7.8579
    -7.8444  -7.8049  -7.7699  -7.7131  -7.2546  -7.2030  -7.1898  -7.0247
    -7.0116  -6.9966  -6.9893  -6.5850  -6.4827  -6.2193  -6.2148  -6.2076
    -5.9680  -5.9612  -5.9490  -5.8920  -5.7351  -5.6559  -5.6524  -5.6394
    -5.6138  -5.5683  -5.5326  -5.4363  -5.4298  -5.4222  -5.2313  -5.2206
    -5.2066  -5.1992  -5.1882  -4.9530  -4.9421  -4.9303  -4.8061  -4.8030
    -4.7886  -4.6101  -4.5395  -4.5335  -4.5204  -4.4932  -4.4516  -4.4395
    -4.4233  -4.4063  -4.0883  -4.0678  -4.0534  -3.9051  -3.9032  -3.8894
    -3.8062  -3.7418  -3.7032  -3.6522  -3.6425  -3.6253  -3.6063  -3.5826
    -3.5710  -3.5266  -3.5012  -3.4886  -3.4493  -3.4025  -3.3494  -3.1998
    -3.1796  -3.1663  -3.0301  -3.0189  -2.9620  -2.8516  -2.7828  -2.6158
    -0.9624  -0.6214  -0.5794  -0.5742  -0.0072   0.1929   0.2520   0.2687
     0.3271   0.3635   0.3695   0.5304   0.5683   0.5889   0.7319   0.7551
     0.7676   0.7694   0.7797   1.0606   1.1735   1.2090   1.2295   1.2939
     1.5369   1.5616   1.5734   1.9197   2.0248   2.0522   2.0606   2.0868
     2.1228   2.3628   2.3913   2.4201   2.4371   2.5380   2.7274   2.7393
     2.7523   2.7584   2.8210   2.8307   2.9148   2.9494   2.9707   2.9943
     3.1710   3.2433   3.2603   3.3184   3.4753   3.4994   3.5646   3.6269
     3.6772   3.7013   3.7884   3.8350   3.8762   3.9236   3.9507   3.9653
     3.9956   4.0228   4.0442   4.1077   4.1529   4.1762   4.2295   4.2365
     4.2665   4.2874   4.3313   4.3493   4.3716   4.4777   4.5487   4.5642
     4.6283   4.6955

          k = 0.0833 0.3368-0.2308 ( 96032 PWs)   bands (ev):

  -113.9636-113.9603-113.9583-113.9534 -71.4360 -71.4348 -71.4329 -71.4314
   -71.4310 -71.4300 -71.4255 -71.4250 -71.2649 -71.2613 -71.2586 -71.2548
   -22.5478 -19.3550 -18.4891 -18.3893 -18.3674 -18.3441 -17.5453 -17.5418
   -17.5344 -17.5162 -17.1163 -17.1041 -17.0936 -17.0836 -17.0523 -16.8903
   -16.8574 -16.8409 -16.8318 -16.8305 -16.8277 -16.8240 -16.8221 -16.8162
   -16.8081 -16.8056 -16.7909 -16.7532 -16.7236 -16.6873 -16.0048 -15.9653
   -15.9075 -15.6676 -15.6106 -15.5632 -15.5428 -15.4573 -15.2915 -15.2536
   -15.1960 -15.0755 -14.9778 -14.9509 -14.9342 -14.9094 -14.8479 -12.6632
   -12.2718 -12.1842 -12.1134 -11.4089 -10.9197 -10.5972 -10.5030 -10.4192
   -10.1114  -9.3412  -9.1653  -9.0919  -9.0238  -8.5314  -8.5261  -8.4617
    -8.4222  -8.3321  -8.2572  -8.2336  -8.1362  -8.1146  -7.9756  -7.9438
    -7.9071  -7.8949  -7.7845  -7.6106  -7.3299  -7.2366  -7.2196  -6.9389
    -6.9018  -6.8429  -6.8332  -6.5863  -6.4825  -6.1628  -6.1279  -6.1250
    -5.9979  -5.9453  -5.9309  -5.8575  -5.7424  -5.6775  -5.6619  -5.6216
    -5.6171  -5.5726  -5.4915  -5.4512  -5.4450  -5.4284  -5.2773  -5.2469
    -5.2212  -5.2105  -5.2040  -5.0129  -5.0095  -4.9770  -4.8038  -4.7923
    -4.7721  -4.6520  -4.5334  -4.5233  -4.4639  -4.4524  -4.3954  -4.3826
    -4.3652  -4.3400  -4.0811  -4.0580  -4.0431  -3.9315  -3.8624  -3.8581
    -3.8047  -3.7513  -3.7166  -3.6768  -3.6455  -3.6262  -3.6178  -3.5970
    -3.5763  -3.5631  -3.4895  -3.4734  -3.4581  -3.4321  -3.3526  -3.2592
    -3.1902  -3.1808  -3.1403  -3.0678  -3.0373  -2.9154  -2.8780  -2.6155
    -0.7558  -0.6741  -0.5953  -0.5240   0.0706   0.1270   0.1865   0.2664
     0.3029   0.4647   0.4913   0.5536   0.6043   0.6908   0.7000   0.7100
     0.7628   0.7793   0.7984   1.0590   1.0901   1.1308   1.2362   1.2663
     1.5244   1.5792   1.6419   1.8575   1.9548   1.9791   1.9951   2.0567
     2.2116   2.3331   2.3865   2.4098   2.4661   2.5249   2.6983   2.7209
     2.7627   2.7765   2.8204   2.9211   2.9407   2.9717   3.0320   3.0705
     3.1121   3.2004   3.2391   3.2980   3.4284   3.4707   3.5398   3.5939
     3.6098   3.6713   3.7188   3.7877   3.8190   3.9066   3.9708   4.0000
     4.0463   4.0747   4.1080   4.1443   4.1743   4.2012   4.2614   4.2919
     4.3342   4.3480   4.4076   4.4444   4.5110   4.5673   4.5907   4.6442
     4.6855   4.7626

          k = 0.0833 0.5292-0.2308 ( 96076 PWs)   bands (ev):

  -113.9636-113.9603-113.9583-113.9534 -71.4360 -71.4348 -71.4329 -71.4314
   -71.4310 -71.4300 -71.4255 -71.4250 -71.2649 -71.2613 -71.2586 -71.2548
   -22.5478 -19.3550 -18.4525 -18.4277 -18.3701 -18.3431 -17.5412 -17.5380
   -17.5322 -17.5235 -17.1187 -17.1115 -17.1062 -17.0934 -16.9836 -16.9465
   -16.8543 -16.8368 -16.8318 -16.8292 -16.8258 -16.8246 -16.8227 -16.8171
   -16.8092 -16.8056 -16.7868 -16.7742 -16.7234 -16.6763 -15.9777 -15.9262
   -15.7632 -15.7163 -15.6859 -15.6491 -15.5248 -15.4992 -15.2802 -15.2314
   -15.0934 -15.0686 -15.0283 -14.9912 -14.9553 -14.9057 -14.8705 -12.5023
   -12.4179 -12.1847 -12.0962 -11.4088 -10.7978 -10.7265 -10.4939 -10.3907
   -10.1113  -9.2730  -9.2318  -9.0577  -8.9582  -8.5743  -8.5533  -8.5402
    -8.4878  -8.3331  -8.2049  -8.1727  -8.1510  -8.0966  -8.0893  -8.0564
    -7.9641  -7.9516  -7.7891  -7.4540  -7.3719  -7.3539  -7.2356  -6.8715
    -6.8569  -6.7291  -6.7167  -6.5876  -6.4819  -6.1238  -6.0789  -6.0014
    -5.9745  -5.9631  -5.9045  -5.8529  -5.7886  -5.7551  -5.6438  -5.6098
    -5.5782  -5.5498  -5.4817  -5.4729  -5.4551  -5.4357  -5.3251  -5.2909
    -5.2211  -5.1858  -5.1503  -5.1041  -5.0718  -5.0469  -4.7857  -4.7630
    -4.7239  -4.6938  -4.5019  -4.4844  -4.4416  -4.4295  -4.3584  -4.3472
    -4.3127  -4.2927  -4.1368  -4.1145  -4.0869  -4.0526  -3.7984  -3.7933
    -3.7646  -3.7560  -3.6954  -3.6882  -3.6781  -3.6423  -3.6228  -3.6162
    -3.6040  -3.5339  -3.4619  -3.4364  -3.4330  -3.4094  -3.3570  -3.3030
    -3.2548  -3.2413  -3.2107  -3.0782  -3.0344  -3.0261  -2.8929  -2.6157
    -0.6992  -0.6261  -0.5839  -0.5369  -0.0102   0.1075   0.2279   0.2486
     0.2554   0.4431   0.5351   0.6319   0.6642   0.7011   0.7171   0.7319
     0.7684   0.8142   0.9436   0.9545   1.0875   1.1058   1.1872   1.2458
     1.4941   1.6288   1.7464   1.8003   1.9316   1.9582   1.9686   2.0246
     2.2553   2.2597   2.2885   2.3676   2.4765   2.5216   2.7418   2.7703
     2.7914   2.8322   2.8567   2.9303   2.9984   3.0202   3.0556   3.0592
     3.0845   3.1846   3.2234   3.2539   3.3004   3.3762   3.5199   3.5828
     3.6115   3.6848   3.7147   3.7411   3.7787   3.8649   3.9005   4.0126
     4.0428   4.0732   4.1313   4.1602   4.2220   4.2955   4.3235   4.3683
     4.4116   4.4583   4.5117   4.5396   4.5601   4.5932   4.6131   4.6801
     4.7177   4.7750

          k = 0.0833-0.4330-0.2308 ( 96090 PWs)   bands (ev):

  -113.9636-113.9603-113.9583-113.9534 -71.4360 -71.4348 -71.4329 -71.4314
   -71.4310 -71.4300 -71.4255 -71.4250 -71.2649 -71.2613 -71.2586 -71.2548
   -22.5478 -19.3550 -18.4716 -18.4079 -18.3692 -18.3435 -17.5422 -17.5409
   -17.5318 -17.5211 -17.1150 -17.1121 -17.1007 -17.0903 -17.0195 -16.9143
   -16.8562 -16.8375 -16.8319 -16.8296 -16.8266 -16.8250 -16.8220 -16.8169
   -16.8087 -16.8057 -16.7890 -16.7661 -16.7239 -16.6800 -15.9908 -15.9380
   -15.8410 -15.6936 -15.6411 -15.6098 -15.5413 -15.4786 -15.2868 -15.2342
   -15.1469 -15.0759 -14.9884 -14.9723 -14.9494 -14.9156 -14.8593 -12.5856
   -12.3399 -12.1848 -12.1023 -11.4089 -10.8623 -10.6592 -10.4970 -10.4016
   -10.1112  -9.3091  -9.1954  -9.0736  -8.9821  -8.5605  -8.5340  -8.5036
    -8.4863  -8.3328  -8.2160  -8.1859  -8.1513  -8.1276  -8.0492  -7.9974
    -7.9404  -7.9272  -7.7887  -7.5376  -7.3488  -7.2891  -7.2394  -6.8924
    -6.8527  -6.7842  -6.7637  -6.5873  -6.4824  -6.1298  -6.1044  -6.0534
    -5.9882  -5.9821  -5.8791  -5.8673  -5.7501  -5.7305  -5.6376  -5.6292
    -5.5882  -5.5746  -5.4806  -5.4605  -5.4463  -5.4290  -5.3109  -5.2885
    -5.2138  -5.1967  -5.1873  -5.0526  -5.0358  -5.0287  -4.7892  -4.7839
    -4.7559  -4.6610  -4.5072  -4.4959  -4.4557  -4.4449  -4.3775  -4.3538
    -4.3368  -4.3186  -4.0922  -4.0783  -4.0545  -4.0343  -3.8365  -3.7965
    -3.7877  -3.7572  -3.7471  -3.6581  -3.6532  -3.6364  -3.6317  -3.6090
    -3.5594  -3.5258  -3.5091  -3.4878  -3.4519  -3.4027  -3.3311  -3.2532
    -3.2329  -3.1941  -3.1836  -3.1788  -3.0202  -2.9379  -2.9048  -2.6158
    -0.6877  -0.6584  -0.6180  -0.5170   0.0249   0.1239   0.1832   0.2762
     0.2896   0.4296   0.5357   0.5970   0.6519   0.6793   0.7137   0.7208
     0.7252   0.8163   0.9187   0.9789   1.0632   1.1374   1.2039   1.2669
     1.4949   1.6275   1.6925   1.8312   1.9420   1.9524   1.9723   2.0361
     2.2601   2.2987   2.3187   2.3736   2.4671   2.5151   2.7231   2.7487
     2.7721   2.8145   2.8832   2.9321   2.9469   2.9881   3.0346   3.0459
     3.1476   3.1971   3.2264   3.2935   3.3301   3.4443   3.4977   3.5498
     3.5734   3.6723   3.7141   3.7311   3.8200   3.9072   3.9553   4.0202
     4.0462   4.0746   4.0997   4.1592   4.2251   4.2595   4.3235   4.3468
     4.3694   4.4241   4.4564   4.5307   4.5558   4.5750   4.6089   4.6473
     4.7143   4.7802

          k = 0.0833-0.2406-0.2308 ( 96078 PWs)   bands (ev):

  -113.9636-113.9603-113.9583-113.9534 -71.4360 -71.4348 -71.4329 -71.4314
   -71.4310 -71.4300 -71.4255 -71.4250 -71.2649 -71.2613 -71.2586 -71.2548
   -22.5478 -19.3550 -18.5032 -18.3739 -18.3655 -18.3446 -17.5472 -17.5447
   -17.5365 -17.5110 -17.1172 -17.0944 -17.0858 -17.0809 -17.0747 -16.8725
   -16.8610 -16.8447 -16.8322 -16.8310 -16.8280 -16.8247 -16.8218 -16.8157
   -16.8073 -16.8055 -16.7922 -16.7372 -16.7240 -16.6956 -16.0207 -15.9863
   -15.9669 -15.6311 -15.5976 -15.5711 -15.4877 -15.4399 -15.3011 -15.2615
   -15.2461 -15.0759 -14.9666 -14.9475 -14.9363 -14.8765 -14.8350 -12.7289
   -12.2175 -12.1824 -12.1273 -11.4091 -10.9653 -10.5470 -10.5056 -10.4432
   -10.1111  -9.3665  -9.1409  -9.1138  -9.0632  -8.5037  -8.4685  -8.4310
    -8.4182  -8.3322  -8.2966  -8.1727  -8.1489  -8.1118  -7.9168  -7.8933
    -7.8723  -7.8454  -7.7810  -7.6734  -7.2971  -7.2244  -7.1913  -6.9647
    -6.9537  -6.9325  -6.9245  -6.5855  -6.4828  -6.1865  -6.1854  -6.1729
    -5.9763  -5.9691  -5.9325  -5.8736  -5.7361  -5.6546  -5.6440  -5.6370
    -5.6311  -5.5762  -5.5130  -5.4436  -5.4327  -5.4207  -5.2490  -5.2343
    -5.2260  -5.2046  -5.1912  -4.9871  -4.9565  -4.9462  -4.8159  -4.8012
    -4.7867  -4.6295  -4.5475  -4.5180  -4.5021  -4.4740  -4.4360  -4.4012
    -4.3898  -4.3744  -4.0792  -4.0552  -4.0463  -3.8926  -3.8749  -3.8602
    -3.8487  -3.7487  -3.6846  -3.6709  -3.6544  -3.6335  -3.6175  -3.5801
    -3.5726  -3.5271  -3.5159  -3.4773  -3.4654  -3.4295  -3.3491  -3.2162
    -3.1972  -3.1696  -3.0853  -3.0281  -2.9556  -2.9405  -2.8194  -2.6160
    -0.8641  -0.6474  -0.5839  -0.5466   0.0568   0.1384   0.2108   0.2806
     0.3316   0.4079   0.4636   0.5113   0.5741   0.6241   0.7021   0.7342
     0.7606   0.7821   0.7905   1.0664   1.1121   1.2057   1.2099   1.2877
     1.5201   1.5761   1.6005   1.8904   1.9981   2.0196   2.0332   2.0400
     2.1758   2.3766   2.3975   2.4132   2.4607   2.5271   2.6982   2.7231
     2.7464   2.7575   2.8422   2.8716   2.9171   2.9623   2.9855   3.0148
     3.1788   3.2522   3.2864   3.3193   3.4182   3.4330   3.5182   3.5999
     3.6474   3.7204   3.7731   3.8087   3.8454   3.8981   3.9735   4.0040
     4.0211   4.0379   4.0893   4.1230   4.1664   4.2094   4.2473   4.2686
     4.3019   4.3249   4.3596   4.3875   4.4139   4.4689   4.5487   4.6087
     4.6817   4.7256

          k = 0.0833-0.0481-0.2308 ( 96016 PWs)   bands (ev):

  -113.9636-113.9603-113.9583-113.9534 -71.4360 -71.4348 -71.4329 -71.4314
   -71.4310 -71.4300 -71.4255 -71.4250 -71.2649 -71.2613 -71.2586 -71.2548
   -22.5478 -19.3550 -18.5183 -18.3629 -18.3589 -18.3437 -17.5508 -17.5464
   -17.5402 -17.5039 -17.1173 -17.1138 -17.0796 -17.0709 -17.0663 -16.8622
   -16.8583 -16.8553 -16.8321 -16.8317 -16.8289 -16.8239 -16.8224 -16.8148
   -16.8062 -16.8052 -16.7934 -16.7216 -16.7176 -16.7066 -16.0328 -16.0274
   -16.0221 -15.5850 -15.5842 -15.5748 -15.4293 -15.4197 -15.3085 -15.2945
   -15.2872 -15.0758 -14.9525 -14.9479 -14.9402 -14.8324 -14.8223 -12.8021
   -12.1718 -12.1650 -12.1498 -11.4094 -11.0135 -10.5065 -10.4939 -10.4768
   -10.1110  -9.3929  -9.1292  -9.1200  -9.1171  -8.4389  -8.4293  -8.4216
    -8.3645  -8.3424  -8.3263  -8.1220  -8.1127  -8.1102  -7.8643  -7.8335
    -7.8278  -7.7758  -7.7567  -7.7423  -7.2135  -7.2030  -7.1823  -7.0625
    -7.0487  -7.0423  -7.0298  -6.5846  -6.4828  -6.2339  -6.2308  -6.2282
    -5.9663  -5.9579  -5.9544  -5.9059  -5.7349  -5.6579  -5.6516  -5.6440
    -5.6042  -5.5596  -5.5461  -5.4324  -5.4295  -5.4216  -5.2305  -5.2207
    -5.2015  -5.1826  -5.1727  -4.9391  -4.9357  -4.9280  -4.7979  -4.7936
    -4.7849  -4.5879  -4.5429  -4.5334  -4.5171  -4.5077  -4.4848  -4.4554
    -4.4454  -4.4332  -4.0963  -4.0727  -4.0665  -3.9150  -3.9095  -3.9074
    -3.7916  -3.7359  -3.7205  -3.6433  -3.6372  -3.6326  -3.5928  -3.5755
    -3.5740  -3.5170  -3.5077  -3.5055  -3.4054  -3.3756  -3.3516  -3.1880
    -3.1751  -3.1664  -3.0097  -2.9922  -2.9798  -2.7877  -2.7654  -2.6162
    -1.0223  -0.6003  -0.5977  -0.5794  -0.0476   0.2385   0.2465   0.2761
     0.3171   0.3195   0.3319   0.5438   0.5540   0.5790   0.7545   0.7582
     0.7681   0.7732   0.7827   1.0593   1.2111   1.2228   1.2269   1.2968
     1.5408   1.5496   1.5746   1.9586   2.0010   2.0734   2.0942   2.1055
     2.1214   2.3504   2.3797   2.3988   2.4209   2.5329   2.7422   2.7583
     2.7678   2.7852   2.7989   2.8056   2.9190   2.9428   2.9570   2.9815
     3.2052   3.2199   3.2447   3.3307   3.4682   3.5457   3.5845   3.5964
     3.6263   3.7013   3.8147   3.8296   3.8740   3.9208   3.9675   4.0138
     4.0347   4.0484   4.0710   4.0847   4.0975   4.1373   4.2190   4.2300
     4.2420   4.2586   4.2696   4.3450   4.4188   4.4497   4.4854   4.5243
     4.5718   4.6785

          k = 0.2500 0.4330-0.2308 ( 96066 PWs)   bands (ev):

  -113.9636-113.9603-113.9583-113.9534 -71.4360 -71.4348 -71.4329 -71.4314
   -71.4310 -71.4300 -71.4255 -71.4250 -71.2649 -71.2613 -71.2586 -71.2548
   -22.5478 -19.3550 -18.4592 -18.4042 -18.3940 -18.3361 -17.5426 -17.5382
   -17.5315 -17.5224 -17.1212 -17.1130 -17.1023 -17.0953 -16.9945 -16.8980
   -16.8930 -16.8331 -16.8315 -16.8296 -16.8270 -16.8243 -16.8212 -16.8171
   -16.8096 -16.8052 -16.7863 -16.7634 -16.7560 -16.6552 -15.9983 -15.8539
   -15.8470 -15.7396 -15.6503 -15.5822 -15.5720 -15.4992 -15.2936 -15.1706
   -15.1596 -15.0738 -15.0140 -14.9972 -14.9290 -14.9158 -14.8722 -12.5324
   -12.3091 -12.2956 -12.0640 -11.4087 -10.8204 -10.6240 -10.6121 -10.3522
   -10.1109  -9.2838  -9.1651  -9.1555  -8.9141  -8.5872  -8.5695  -8.5341
    -8.3792  -8.3305  -8.3283  -8.1754  -8.1249  -8.1059  -8.0946  -7.9962
    -7.9858  -7.9744  -7.7865  -7.4769  -7.4266  -7.2570  -7.2506  -6.8650
    -6.8091  -6.7700  -6.7348  -6.5862  -6.4817  -6.0735  -6.0681  -6.0354
    -6.0112  -5.9342  -5.9022  -5.8840  -5.7783  -5.7490  -5.6501  -5.6048
    -5.5809  -5.5621  -5.4969  -5.4466  -5.4322  -5.4204  -5.2986  -5.2874
    -5.2321  -5.2168  -5.1920  -5.0871  -5.0778  -5.0604  -4.7891  -4.7486
    -4.7306  -4.6610  -4.5154  -4.5063  -4.4435  -4.3955  -4.3629  -4.3388
    -4.3280  -4.3125  -4.1120  -4.0916  -4.0786  -4.0607  -3.8343  -3.8080
    -3.7767  -3.7541  -3.7205  -3.6932  -3.6862  -3.6403  -3.6185  -3.5921
    -3.5665  -3.4970  -3.4867  -3.4709  -3.4510  -3.4033  -3.3615  -3.2738
    -3.2622  -3.2319  -3.1933  -3.1358  -3.0859  -2.9650  -2.8355  -2.6156
    -0.7274  -0.6202  -0.5597  -0.5506  -0.0619   0.1896   0.1963   0.2021
     0.2260   0.4915   0.5973   0.6232   0.6854   0.6945   0.7003   0.7095
     0.7911   0.8194   0.8357   0.8849   1.0740   1.1910   1.2224   1.2475
     1.4328   1.7401   1.7552   1.8514   1.9244   1.9394   1.9551   2.0238
     2.2605   2.2805   2.3153   2.3536   2.4635   2.5366   2.7306   2.7500
     2.7993   2.8321   2.8644   2.9328   3.0017   3.0393   3.0462   3.0553
     3.1302   3.1701   3.2109   3.2295   3.3284   3.4249   3.4885   3.5252
     3.5765   3.6207   3.7057   3.7918   3.8430   3.8860   3.9439   3.9868
     4.0179   4.0876   4.1111   4.1673   4.2170   4.2615   4.3107   4.3529
     4.3973   4.4337   4.4917   4.5139   4.5407   4.5646   4.6023   4.6746
     4.6860   4.7213

          k = 0.2500 0.6255-0.2308 ( 96114 PWs)   bands (ev):

  -113.9636-113.9603-113.9583-113.9534 -71.4360 -71.4348 -71.4329 -71.4314
   -71.4310 -71.4300 -71.4255 -71.4250 -71.2649 -71.2613 -71.2586 -71.2548
   -22.5478 -19.3550 -18.4414 -18.4186 -18.4003 -18.3341 -17.5409 -17.5386
   -17.5310 -17.5231 -17.1250 -17.1130 -17.1048 -17.0982 -16.9608 -16.9244
   -16.8961 -16.8325 -16.8317 -16.8287 -16.8262 -16.8250 -16.8204 -16.8180
   -16.8100 -16.8050 -16.7834 -16.7703 -16.7605 -16.6473 -15.9929 -15.8339
   -15.7851 -15.7592 -15.7155 -15.5860 -15.5507 -15.5256 -15.2926 -15.1558
   -15.1158 -15.0798 -15.0505 -15.0123 -14.9247 -14.9114 -14.8803 -12.4556
   -12.3765 -12.3080 -12.0528 -11.4087 -10.7566 -10.6874 -10.6200 -10.3369
   -10.1105  -9.2461  -9.2014  -9.1566  -8.8794  -8.5891  -8.5841  -8.5630
    -8.3968  -8.3339  -8.3053  -8.1636  -8.1378  -8.1019  -8.0956  -8.0258
    -8.0111  -8.0008  -7.7899  -7.4494  -7.3949  -7.3139  -7.2592  -6.8550
    -6.7684  -6.7480  -6.7136  -6.5871  -6.4816  -6.0569  -6.0308  -6.0035
    -5.9923  -5.9385  -5.9268  -5.8707  -5.8335  -5.7519  -5.6396  -5.5902
    -5.5715  -5.5663  -5.5204  -5.4247  -5.4213  -5.4083  -5.3232  -5.3020
    -5.2518  -5.1748  -5.1723  -5.1162  -5.1111  -5.1012  -4.7867  -4.7292
    -4.7080  -4.6683  -4.5078  -4.4824  -4.4684  -4.3861  -4.3444  -4.3246
    -4.3174  -4.3016  -4.1354  -4.1210  -4.1041  -4.0770  -3.8163  -3.7953
    -3.7811  -3.7750  -3.7063  -3.6910  -3.6754  -3.6321  -3.6156  -3.6028
    -3.5866  -3.4836  -3.4740  -3.4617  -3.4295  -3.4028  -3.3630  -3.3195
    -3.2929  -3.2630  -3.1886  -3.0977  -3.0810  -3.0140  -2.8168  -2.6161
    -0.7357  -0.5794  -0.5678  -0.5551  -0.0976   0.1616   0.1845   0.2129
     0.2264   0.4982   0.6082   0.6633   0.6733   0.6763   0.7033   0.7280
     0.7808   0.8396   0.8445   0.9392   0.9981   1.2092   1.2135   1.2540
     1.3986   1.8077   1.8355   1.8608   1.9214   1.9357   1.9460   1.9743
     2.2604   2.2787   2.2932   2.3056   2.4740   2.5344   2.7253   2.7822
     2.8150   2.8543   2.8970   2.9388   3.0085   3.0370   3.0574   3.0897
     3.1043   3.1677   3.2093   3.2282   3.3023   3.3893   3.4635   3.4973
     3.5327   3.5652   3.7449   3.7764   3.8360   3.8996   3.9221   3.9944
     4.0286   4.0459   4.1277   4.1784   4.2650   4.2836   4.2982   4.3684
     4.3936   4.4262   4.4615   4.5167   4.5432   4.6429   4.6645   4.6918
     4.7263   4.7886

          k = 0.2500-0.3368-0.2308 ( 96066 PWs)   bands (ev):

  -113.9636-113.9603-113.9583-113.9534 -71.4360 -71.4348 -71.4329 -71.4314
   -71.4310 -71.4300 -71.4255 -71.4250 -71.2649 -71.2613 -71.2586 -71.2548
   -22.5478 -19.3550 -18.4757 -18.3959 -18.3804 -18.3398 -17.5433 -17.5410
   -17.5315 -17.5203 -17.1152 -17.1120 -17.0969 -17.0919 -17.0263 -16.8938
   -16.8724 -16.8346 -16.8320 -16.8309 -16.8271 -16.8251 -16.8202 -16.8172
   -16.8088 -16.8058 -16.7889 -16.7572 -16.7429 -16.6698 -16.0029 -15.9130
   -15.8771 -15.7066 -15.5971 -15.5919 -15.5693 -15.4740 -15.2930 -15.2138
   -15.1756 -15.0759 -14.9945 -14.9605 -14.9380 -14.9240 -14.8551 -12.6036
   -12.2896 -12.2375 -12.0849 -11.4089 -10.8751 -10.6100 -10.5553 -10.3830
   -10.1105  -9.3160  -9.1644  -9.1219  -8.9691  -8.5677  -8.5486  -8.4996
    -8.3903  -8.3322  -8.2928  -8.2189  -8.1385  -8.1020  -8.0380  -7.9665
    -7.9434  -7.9315  -7.7872  -7.5545  -7.3847  -7.2538  -7.2103  -6.8866
    -6.8790  -6.7914  -6.7803  -6.5862  -6.4821  -6.1296  -6.0937  -6.0775
    -6.0075  -5.9371  -5.9254  -5.8644  -5.7436  -5.7191  -5.6615  -5.6076
    -5.6063  -5.5627  -5.4776  -5.4664  -5.4407  -5.4270  -5.2866  -5.2655
    -5.2243  -5.2108  -5.2033  -5.0592  -5.0382  -5.0096  -4.7964  -4.7769
    -4.7506  -4.6569  -4.5276  -4.5217  -4.4435  -4.4222  -4.3818  -4.3595
    -4.3420  -4.3308  -4.0928  -4.0682  -4.0475  -4.0096  -3.8496  -3.8278
    -3.7687  -3.7483  -3.7311  -3.7042  -3.6685  -3.6388  -3.6294  -3.5869
    -3.5560  -3.5361  -3.5021  -3.4849  -3.4471  -3.4119  -3.3332  -3.2706
    -3.2300  -3.1855  -3.1640  -3.1098  -3.1020  -2.9197  -2.8697  -2.6163
    -0.7076  -0.6812  -0.5715  -0.5346  -0.0006   0.1642   0.2084   0.2338
     0.2402   0.4850   0.5557   0.5832   0.6630   0.6956   0.7114   0.7380
     0.7467   0.7781   0.7956   0.9685   1.1070   1.1576   1.2342   1.2436
     1.4756   1.6446   1.6947   1.8550   1.9408   1.9520   1.9690   2.0480
     2.2365   2.3148   2.3469   2.4062   2.4510   2.5252   2.7240   2.7397
     2.7590   2.7976   2.8429   2.9517   2.9792   2.9997   3.0454   3.0835
     3.1410   3.1713   3.2401   3.2639   3.2852   3.4452   3.4947   3.5521
     3.6452   3.6803   3.7107   3.7537   3.7712   3.8964   3.9639   3.9994
     4.0148   4.0904   4.1355   4.1599   4.1998   4.2764   4.3033   4.3387
     4.3715   4.4076   4.4719   4.5039   4.5300   4.5501   4.5744   4.6255
     4.6699   4.7516

          k = 0.2500-0.1443-0.2308 ( 96098 PWs)   bands (ev):

  -113.9636-113.9603-113.9583-113.9534 -71.4360 -71.4348 -71.4329 -71.4314
   -71.4310 -71.4300 -71.4255 -71.4250 -71.2649 -71.2613 -71.2586 -71.2548
   -22.5478 -19.3550 -18.4984 -18.3823 -18.3602 -18.3474 -17.5473 -17.5423
   -17.5361 -17.5132 -17.1146 -17.0975 -17.0912 -17.0798 -17.0694 -16.8822
   -16.8505 -16.8487 -16.8323 -16.8313 -16.8276 -16.8246 -16.8208 -16.8162
   -16.8076 -16.8059 -16.7914 -16.7463 -16.7121 -16.7016 -16.0031 -15.9957
   -15.9415 -15.6306 -15.6249 -15.5597 -15.5089 -15.4434 -15.2884 -15.2728
   -15.2228 -15.0753 -14.9649 -14.9600 -14.9286 -14.8912 -14.8387 -12.7062
   -12.2460 -12.1546 -12.1407 -11.4091 -10.9495 -10.5735 -10.4710 -10.4596
   -10.1106  -9.3579  -9.1575  -9.0768  -9.0712  -8.5148  -8.4799  -8.4426
    -8.4342  -8.3311  -8.2843  -8.1842  -8.1374  -8.1249  -7.9321  -7.9248
    -7.8763  -7.8600  -7.7800  -7.6592  -7.2713  -7.2559  -7.2149  -6.9595
    -6.9259  -6.8980  -6.8915  -6.5847  -6.4822  -6.1770  -6.1670  -6.1589
    -5.9870  -5.9606  -5.9285  -5.8668  -5.7347  -5.6606  -5.6510  -5.6398
    -5.6220  -5.5779  -5.5022  -5.4449  -5.4368  -5.4267  -5.2604  -5.2425
    -5.2236  -5.1993  -5.1955  -4.9917  -4.9766  -4.9551  -4.8122  -4.8021
    -4.7844  -4.6411  -4.5426  -4.5094  -4.4904  -4.4804  -4.4126  -4.3943
    -4.3828  -4.3611  -4.0757  -4.0557  -4.0458  -3.8843  -3.8769  -3.8595
    -3.8462  -3.7500  -3.7112  -3.6572  -3.6397  -3.6267  -3.6106  -3.5985
    -3.5828  -3.5500  -3.4871  -3.4689  -3.4665  -3.4467  -3.3533  -3.2222
    -3.2035  -3.1679  -3.1301  -2.9924  -2.9804  -2.9677  -2.8443  -2.6164
    -0.8220  -0.6324  -0.6278  -0.5216   0.0832   0.1441   0.1601   0.2863
     0.3589   0.3890   0.5058   0.5218   0.5530   0.6553   0.6975   0.7114
     0.7634   0.7853   0.8116   1.0693   1.1123   1.1506   1.2269   1.2838
     1.5316   1.5534   1.6220   1.8769   1.9715   2.0110   2.0205   2.0455
     2.1890   2.3657   2.3836   2.4236   2.4550   2.5365   2.6877   2.7175
     2.7484   2.7938   2.8048   2.8831   2.9188   2.9650   3.0030   3.0462
     3.1981   3.2193   3.2885   3.3466   3.3820   3.4157   3.5070   3.5846
     3.6272   3.6663   3.7285   3.8100   3.9361   3.9583   3.9694   4.0193
     4.0299   4.0485   4.0878   4.1113   4.1613   4.1912   4.2389   4.2842
     4.2914   4.3425   4.3805   4.4109   4.4683   4.5462   4.5879   4.6254
     4.6568   4.6910

          k = 0.4167 0.7217-0.2308 ( 96084 PWs)   bands (ev):

  -113.9636-113.9603-113.9583-113.9534 -71.4360 -71.4348 -71.4329 -71.4314
   -71.4310 -71.4300 -71.4255 -71.4250 -71.2649 -71.2613 -71.2586 -71.2548
   -22.5478 -19.3550 -18.4407 -18.4320 -18.3838 -18.3377 -17.5406 -17.5380
   -17.5319 -17.5236 -17.1227 -17.1108 -17.1047 -17.0983 -16.9595 -16.9518
   -16.8714 -16.8335 -16.8320 -16.8297 -16.8262 -16.8252 -16.8190 -16.8179
   -16.8105 -16.8056 -16.7829 -16.7758 -16.7447 -16.6580 -15.9873 -15.8806
   -15.7459 -15.7371 -15.7323 -15.6206 -15.5259 -15.5168 -15.2870 -15.1954
   -15.0870 -15.0718 -15.0543 -15.0051 -14.9438 -14.9008 -14.8782 -12.4490
   -12.4354 -12.2435 -12.0679 -11.4087 -10.7513 -10.7395 -10.5564 -10.3572
   -10.1101  -9.2468  -9.2349  -9.1084  -8.9100  -8.5870  -8.5668  -8.5572
    -8.4459  -8.3322  -8.2502  -8.1490  -8.1405  -8.1342  -8.0890  -8.0435
    -7.9845  -7.9752  -7.7883  -7.4186  -7.3895  -7.3869  -7.2227  -6.8597
    -6.8228  -6.7275  -6.7099  -6.5858  -6.4816  -6.1029  -6.0493  -6.0000
    -5.9522  -5.9484  -5.9443  -5.8484  -5.8268  -5.7486  -5.6425  -5.6076
    -5.5749  -5.5496  -5.5042  -5.4534  -5.4348  -5.4211  -5.3175  -5.2943
    -5.2337  -5.1815  -5.1505  -5.1342  -5.0896  -5.0713  -4.7889  -4.7506
    -4.7120  -4.6777  -4.5129  -4.4776  -4.4478  -4.4073  -4.3502  -4.3346
    -4.3096  -4.3018  -4.1437  -4.1217  -4.1023  -4.0566  -3.7981  -3.7922
    -3.7838  -3.7575  -3.7076  -3.6858  -3.6700  -3.6341  -3.6319  -3.6257
    -3.5922  -3.5003  -3.4641  -3.4473  -3.4236  -3.4039  -3.3505  -3.3310
    -3.2943  -3.2287  -3.2010  -3.0803  -3.0725  -3.0329  -2.8453  -2.6166
    -0.7247  -0.5974  -0.5654  -0.5506  -0.0650   0.1513   0.1940   0.2172
     0.2415   0.5176   0.5341   0.6478   0.6673   0.7002   0.7093   0.7434
     0.7823   0.8048   0.8795   0.9576   1.0445   1.1525   1.2001   1.2624
     1.4292   1.7217   1.7890   1.8323   1.9280   1.9453   1.9745   1.9995
     2.2502   2.2766   2.2802   2.3341   2.4607   2.5452   2.7422   2.7649
     2.7804   2.8630   2.9037   2.9318   3.0158   3.0496   3.0624   3.0946
     3.1180   3.1490   3.1857   3.2122   3.2938   3.3403   3.4919   3.5756
     3.5850   3.6078   3.6594   3.7759   3.8135   3.8889   3.9469   3.9915
     4.0461   4.0806   4.1451   4.1917   4.2463   4.2892   4.3074   4.3736
     4.3981   4.4495   4.4637   4.5283   4.5607   4.6059   4.6087   4.6773
     4.7403   4.8049

          k = 0.4167-0.2406-0.2308 ( 96042 PWs)   bands (ev):

  -113.9636-113.9603-113.9583-113.9534 -71.4360 -71.4348 -71.4329 -71.4314
   -71.4310 -71.4300 -71.4255 -71.4250 -71.2649 -71.2613 -71.2586 -71.2548
   -22.5478 -19.3550 -18.4632 -18.4197 -18.3610 -18.3490 -17.5418 -17.5382
   -17.5325 -17.5230 -17.1155 -17.1092 -17.1049 -17.0931 -17.0049 -16.9328
   -16.8448 -16.8429 -16.8320 -16.8307 -16.8264 -16.8252 -16.8190 -16.8175
   -16.8098 -16.8064 -16.7868 -16.7722 -16.7057 -16.6950 -15.9653 -15.9567
   -15.8032 -15.6812 -15.6763 -15.6453 -15.5270 -15.4831 -15.2690 -15.2519
   -15.1160 -15.0739 -14.9975 -14.9800 -14.9676 -14.9056 -14.8649 -12.5507
   -12.3826 -12.1439 -12.1300 -11.4088 -10.8348 -10.6963 -10.4476 -10.4371
   -10.1103  -9.2943  -9.2176  -9.0208  -9.0127  -8.5566  -8.5384  -8.5191
    -8.5119  -8.3325  -8.1993  -8.1759  -8.1443  -8.1271  -8.0583  -8.0417
    -7.9431  -7.9331  -7.7862  -7.5106  -7.3415  -7.2918  -7.2790  -6.8867
    -6.8655  -6.7445  -6.7396  -6.5850  -6.4816  -6.1260  -6.1150  -6.0094
    -5.9943  -5.9743  -5.8792  -5.8656  -5.7612  -5.7426  -5.6487  -5.6224
    -5.5780  -5.5639  -5.4738  -5.4657  -5.4587  -5.4433  -5.3171  -5.2780
    -5.2163  -5.1863  -5.1699  -5.0692  -5.0534  -5.0307  -4.7932  -4.7778
    -4.7475  -4.6803  -4.4935  -4.4840  -4.4698  -4.4327  -4.3650  -4.3522
    -4.3252  -4.3082  -4.1195  -4.0794  -4.0686  -4.0599  -3.8076  -3.7918
    -3.7686  -3.7570  -3.7218  -3.6768  -3.6547  -3.6480  -3.6288  -3.5978
    -3.5808  -3.5640  -3.4854  -3.4632  -3.4337  -3.3878  -3.3511  -3.2853
    -3.2493  -3.2107  -3.1971  -3.1357  -2.9873  -2.9676  -2.9534  -2.6166
    -0.6668  -0.6596  -0.6177  -0.5147   0.0555   0.0654   0.2039   0.2695
     0.3329   0.3609   0.5670   0.5988   0.6630   0.6826   0.7050   0.7295
     0.7687   0.8056   0.9493   1.0206   1.0508   1.0760   1.2190   1.2392
     1.5397   1.5628   1.7065   1.8113   1.9438   1.9546   1.9669   2.0409
     2.2521   2.2755   2.2978   2.3771   2.4458   2.5419   2.7343   2.7625
     2.7746   2.8212   2.8437   2.9505   2.9823   2.9972   3.0598   3.0971
     3.1264   3.1771   3.2023   3.2675   3.3143   3.3882   3.4450   3.5796
     3.5894   3.6577   3.7407   3.7650   3.8974   3.9102   3.9344   3.9583
     4.0172   4.0589   4.1167   4.1702   4.2022   4.2968   4.3496   4.3874
     4.4157   4.4501   4.4733   4.5044   4.5424   4.5780   4.6369   4.6795
     4.7431   4.7938

          k =-0.0833 0.1443 0.2308 ( 95992 PWs)   bands (ev):

  -113.9636-113.9603-113.9583-113.9534 -71.4360 -71.4348 -71.4329 -71.4314
   -71.4310 -71.4300 -71.4255 -71.4250 -71.2649 -71.2613 -71.2586 -71.2548
   -22.5478 -19.3550 -18.5132 -18.3648 -18.3626 -18.3445 -17.5495 -17.5458
   -17.5389 -17.5065 -17.1179 -17.1025 -17.0850 -17.0743 -17.0710 -16.8628
   -16.8622 -16.8505 -16.8322 -16.8314 -16.8285 -16.8243 -16.8220 -16.8151
   -16.8066 -16.8053 -16.7929 -16.7242 -16.7225 -16.7033 -16.0293 -16.0089
   -16.0066 -15.6034 -15.5817 -15.5791 -15.4488 -15.4270 -15.3055 -15.2791
   -15.2767 -15.0758 -14.9573 -14.9470 -14.9398 -14.8477 -14.8266 -12.7768
   -12.1817 -12.1766 -12.1415 -11.4093 -10.9972 -10.5156 -10.5022 -10.4650
   -10.1110  -9.3840  -9.1269  -9.1253  -9.0967  -8.4613  -8.4498  -8.4196
    -8.3830  -8.3348  -8.3212  -8.1454  -8.1275  -8.1083  -7.8781  -7.8544
    -7.8455  -7.8008  -7.7717  -7.7170  -7.2551  -7.2054  -7.1852  -7.0222
    -7.0101  -7.0041  -6.9868  -6.5849  -6.4828  -6.2190  -6.2153  -6.2073
    -5.9709  -5.9594  -5.9484  -5.8930  -5.7349  -5.6570  -5.6472  -5.6440
    -5.6129  -5.5669  -5.5345  -5.4352  -5.4304  -5.4207  -5.2368  -5.2208
    -5.2057  -5.1973  -5.1847  -4.9554  -4.9406  -4.9287  -4.8087  -4.8000
    -4.7893  -4.6092  -4.5443  -4.5310  -4.5209  -4.4906  -4.4560  -4.4423
    -4.4174  -4.4076  -4.0878  -4.0622  -4.0595  -3.9058  -3.9022  -3.8900
    -3.8068  -3.7430  -3.7019  -3.6519  -3.6430  -3.6262  -3.6000  -3.5921
    -3.5717  -3.5229  -3.5036  -3.4867  -3.4477  -3.3974  -3.3531  -3.1944
    -3.1852  -3.1678  -3.0263  -3.0197  -2.9633  -2.8508  -2.7833  -2.6161
    -0.9622  -0.6216  -0.5793  -0.5741  -0.0075   0.1927   0.2523   0.2670
     0.3267   0.3615   0.3732   0.5287   0.5693   0.5893   0.7290   0.7586
     0.7637   0.7723   0.7798   1.0605   1.1772   1.2105   1.2246   1.2940
     1.5340   1.5546   1.5828   1.9246   2.0144   2.0516   2.0653   2.0878
     2.1254   2.3633   2.3916   2.4171   2.4437   2.5304   2.7309   2.7414
     2.7486   2.7608   2.8216   2.8306   2.9182   2.9490   2.9610   2.9919
     3.2091   3.2394   3.2692   3.3178   3.4461   3.5106   3.5329   3.5921
     3.6425   3.7121   3.8184   3.8238   3.9042   3.9364   3.9514   3.9899
     4.0025   4.0189   4.0688   4.0926   4.1375   4.1676   4.2291   4.2586
     4.2683   4.2913   4.3088   4.3364   4.3895   4.4524   4.5304   4.5853
     4.6116   4.6830

          k = 0.1667 0.0000-0.2308 ( 95992 PWs)   bands (ev):

  -113.9636-113.9603-113.9583-113.9534 -71.4360 -71.4348 -71.4329 -71.4314
   -71.4310 -71.4300 -71.4255 -71.4250 -71.2649 -71.2613 -71.2586 -71.2548
   -22.5478 -19.3550 -18.5131 -18.3674 -18.3593 -18.3453 -17.5499 -17.5448
   -17.5393 -17.5066 -17.1162 -17.1047 -17.0835 -17.0761 -17.0701 -16.8646
   -16.8587 -16.8525 -16.8322 -16.8315 -16.8287 -16.8237 -16.8220 -16.8152
   -16.8064 -16.8055 -16.7928 -16.7271 -16.7188 -16.7043 -16.0279 -16.0116
   -16.0052 -15.6052 -15.5822 -15.5769 -15.4498 -15.4260 -15.3020 -15.2865
   -15.2728 -15.0755 -14.9576 -14.9468 -14.9400 -14.8465 -14.8279 -12.7767
   -12.1833 -12.1736 -12.1430 -11.4092 -10.9971 -10.5160 -10.4995 -10.4674
   -10.1109  -9.3840  -9.1301  -9.1224  -9.0968  -8.4627  -8.4465  -8.4213
    -8.3836  -8.3305  -8.3246  -8.1429  -8.1265  -8.1127  -7.8809  -7.8532
    -7.8448  -7.8012  -7.7649  -7.7220  -7.2526  -7.2051  -7.1883  -7.0256
    -7.0096  -6.9987  -6.9895  -6.5846  -6.4824  -6.2178  -6.2154  -6.2090
    -5.9701  -5.9611  -5.9471  -5.8923  -5.7339  -5.6610  -5.6488  -5.6389
    -5.6143  -5.5684  -5.5321  -5.4347  -5.4292  -5.4238  -5.2341  -5.2244
    -5.2048  -5.1963  -5.1851  -4.9549  -4.9389  -4.9314  -4.8072  -4.8006
    -4.7898  -4.6128  -4.5448  -4.5299  -4.5141  -4.4946  -4.4554  -4.4354
    -4.4242  -4.4080  -4.0881  -4.0660  -4.0551  -3.9055  -3.9039  -3.8885
    -3.8070  -3.7407  -3.7038  -3.6535  -3.6431  -3.6261  -3.6010  -3.5865
    -3.5734  -3.5234  -3.4967  -3.4904  -3.4527  -3.3944  -3.3551  -3.2033
    -3.1759  -3.1672  -3.0305  -3.0189  -2.9616  -2.8496  -2.7848  -2.6162
    -0.9619  -0.6245  -0.5784  -0.5719  -0.0075   0.1923   0.2513   0.2686
     0.3312   0.3604   0.3696   0.5309   0.5688   0.5890   0.7284   0.7556
     0.7649   0.7745   0.7800   1.0605   1.1772   1.2060   1.2289   1.2942
     1.5284   1.5655   1.5780   1.9239   2.0168   2.0477   2.0655   2.0861
     2.1243   2.3613   2.4040   2.4124   2.4337   2.5416   2.7292   2.7384
     2.7461   2.7693   2.8148   2.8323   2.9107   2.9472   2.9688   2.9930
     3.1929   3.2338   3.2700   3.3349   3.4594   3.5028   3.5403   3.5982
     3.6414   3.7163   3.8095   3.8325   3.8845   3.9357   3.9598   3.9834
     4.0003   4.0228   4.0681   4.1077   4.1367   4.1744   4.2247   4.2544
     4.2681   4.2788   4.3132   4.3425   4.4091   4.4403   4.5299   4.5808
     4.6341   4.6715

          k =-0.0833 0.3368 0.2308 ( 96032 PWs)   bands (ev):

  -113.9636-113.9603-113.9583-113.9534 -71.4360 -71.4348 -71.4329 -71.4314
   -71.4310 -71.4300 -71.4255 -71.4250 -71.2649 -71.2613 -71.2586 -71.2548
   -22.5478 -19.3550 -18.4891 -18.3891 -18.3676 -18.3441 -17.5446 -17.5430
   -17.5338 -17.5163 -17.1158 -17.1047 -17.0922 -17.0851 -17.0524 -16.8893
   -16.8586 -16.8402 -16.8320 -16.8304 -16.8273 -16.8249 -16.8217 -16.8164
   -16.8080 -16.8056 -16.7909 -16.7528 -16.7242 -16.6871 -16.0067 -15.9611
   -15.9099 -15.6632 -15.6197 -15.5584 -15.5426 -15.4575 -15.2944 -15.2460
   -15.2004 -15.0760 -14.9775 -14.9532 -14.9276 -14.9153 -14.8463 -12.6632
   -12.2717 -12.1844 -12.1133 -11.4090 -10.9195 -10.5974 -10.5020 -10.4204
   -10.1111  -9.3411  -9.1642  -9.0944  -9.0222  -8.5403  -8.4980  -8.4616
    -8.4562  -8.3324  -8.2586  -8.1887  -8.1600  -8.1190  -7.9784  -7.9447
    -7.9048  -7.8906  -7.7863  -7.6123  -7.3290  -7.2369  -7.2261  -6.9248
    -6.8809  -6.8656  -6.8393  -6.5864  -6.4827  -6.1541  -6.1364  -6.1276
    -5.9833  -5.9782  -5.9098  -5.8601  -5.7410  -5.6755  -5.6469  -5.6394
    -5.6133  -5.5785  -5.4867  -5.4597  -5.4378  -5.4231  -5.2771  -5.2630
    -5.2254  -5.2126  -5.1857  -5.0233  -4.9899  -4.9842  -4.8072  -4.7942
    -4.7742  -4.6449  -4.5354  -4.5045  -4.4752  -4.4595  -4.4064  -4.3694
    -4.3658  -4.3441  -4.0795  -4.0535  -4.0474  -3.9331  -3.8689  -3.8336
    -3.8228  -3.7515  -3.7338  -3.6521  -3.6462  -3.6434  -3.6250  -3.5907
    -3.5663  -3.5458  -3.5070  -3.4792  -3.4594  -3.4306  -3.3397  -3.2300
    -3.2178  -3.1774  -3.1557  -3.0743  -3.0248  -2.9206  -2.8721  -2.6159
    -0.7557  -0.6704  -0.6006  -0.5225   0.0784   0.1240   0.1664   0.2834
     0.3192   0.4333   0.5135   0.5694   0.5748   0.6708   0.6866   0.7185
     0.7465   0.7996   0.8328   1.0397   1.0737   1.1754   1.2088   1.2779
     1.5079   1.6018   1.6376   1.8606   1.9592   1.9776   1.9946   2.0451
     2.2214   2.3558   2.3700   2.3967   2.4613   2.5195   2.6992   2.7260
     2.7562   2.7745   2.8649   2.9202   2.9259   2.9673   3.0145   3.0442
     3.1373   3.2409   3.2760   3.2979   3.3922   3.4109   3.5261   3.5800
     3.6038   3.6764   3.7310   3.7628   3.8435   3.9099   3.9787   4.0062
     4.0406   4.0589   4.1043   4.1653   4.1979   4.2337   4.2569   4.2761
     4.3393   4.3744   4.4151   4.4796   4.5029   4.5188   4.5956   4.6220
     4.6958   4.7462

          k =-0.2500 0.2406-0.2308 ( 96032 PWs)   bands (ev):

  -113.9636-113.9603-113.9583-113.9534 -71.4360 -71.4348 -71.4329 -71.4314
   -71.4310 -71.4300 -71.4255 -71.4250 -71.2649 -71.2613 -71.2586 -71.2548
   -22.5478 -19.3550 -18.4890 -18.3895 -18.3669 -18.3446 -17.5454 -17.5417
   -17.5339 -17.5166 -17.1145 -17.1042 -17.0941 -17.0851 -17.0521 -16.8896
   -16.8580 -16.8403 -16.8322 -16.8313 -16.8273 -16.8250 -16.8204 -16.8166
   -16.8081 -16.8060 -16.7904 -16.7528 -16.7242 -16.6876 -16.0039 -15.9639
   -15.9097 -15.6682 -15.6125 -15.5611 -15.5446 -15.4553 -15.2897 -15.2526
   -15.1973 -15.0755 -14.9790 -14.9527 -14.9272 -14.9172 -14.8453 -12.6632
   -12.2707 -12.1855 -12.1133 -11.4090 -10.9191 -10.5952 -10.5038 -10.4216
   -10.1106  -9.3410  -9.1646  -9.0921  -9.0255  -8.5304  -8.5284  -8.4632
    -8.4181  -8.3318  -8.2572  -8.2346  -8.1370  -8.1137  -7.9776  -7.9443
    -7.9037  -7.8915  -7.7840  -7.6166  -7.3284  -7.2400  -7.2158  -6.9366
    -6.9058  -6.8419  -6.8335  -6.5853  -6.4822  -6.1643  -6.1286  -6.1244
    -5.9985  -5.9447  -5.9321  -5.8605  -5.7377  -5.6772  -5.6652  -5.6240
    -5.6150  -5.5722  -5.4918  -5.4490  -5.4435  -5.4296  -5.2779  -5.2507
    -5.2156  -5.2057  -5.2033  -5.0177  -5.0074  -4.9736  -4.8045  -4.7947
    -4.7724  -4.6517  -4.5325  -4.5269  -4.4607  -4.4564  -4.3955  -4.3818
    -4.3625  -4.3438  -4.0795  -4.0552  -4.0482  -3.9322  -3.8621  -3.8549
    -3.8074  -3.7505  -3.7160  -3.6730  -3.6458  -3.6327  -3.6174  -3.5981
    -3.5739  -3.5698  -3.4804  -3.4740  -3.4588  -3.4370  -3.3426  -3.2577
    -3.2043  -3.1733  -3.1396  -3.0665  -3.0365  -2.9167  -2.8792  -2.6164
    -0.7544  -0.6746  -0.5988  -0.5200   0.0715   0.1249   0.1864   0.2650
     0.3004   0.4696   0.4922   0.5525   0.6089   0.6878   0.7000   0.7075
     0.7632   0.7777   0.8009   1.0627   1.0887   1.1300   1.2361   1.2656
     1.5183   1.5749   1.6491   1.8617   1.9556   1.9811   1.9922   2.0535
     2.2116   2.3406   2.3737   2.4243   2.4539   2.5295   2.7036   2.7196
     2.7607   2.7686   2.8257   2.9180   2.9385   2.9732   3.0317   3.0815
     3.1738   3.1940   3.2609   3.2972   3.3316   3.4684   3.4961   3.5689
     3.6280   3.6793   3.7185   3.7922   3.8293   3.9305   3.9569   4.0214
     4.0453   4.0739   4.1104   4.1310   4.1716   4.2444   4.2822   4.2916
     4.3246   4.3710   4.4222   4.4544   4.5034   4.5412   4.5890   4.6123
     4.6900   4.7462

          k = 0.3333 0.0962-0.2308 ( 96032 PWs)   bands (ev):

  -113.9636-113.9603-113.9583-113.9534 -71.4360 -71.4348 -71.4329 -71.4314
   -71.4310 -71.4300 -71.4255 -71.4250 -71.2649 -71.2613 -71.2586 -71.2548
   -22.5478 -19.3550 -18.4890 -18.3905 -18.3652 -18.3453 -17.5461 -17.5396
   -17.5355 -17.5166 -17.1142 -17.1025 -17.0966 -17.0838 -17.0523 -16.8899
   -16.8570 -16.8421 -16.8324 -16.8303 -16.8282 -16.8230 -16.8221 -16.8159
   -16.8082 -16.8059 -16.7902 -16.7540 -16.7226 -16.6883 -16.0028 -15.9660
   -15.9084 -15.6694 -15.6106 -15.5616 -15.5445 -15.4555 -15.2873 -15.2569
   -15.1965 -15.0744 -14.9807 -14.9512 -14.9281 -14.9132 -14.8486 -12.6631
   -12.2712 -12.1841 -12.1143 -11.4089 -10.9192 -10.5965 -10.5014 -10.4225
   -10.1108  -9.3410  -9.1661  -9.0910  -9.0254  -8.5312  -8.5258  -8.4626
    -8.4204  -8.3304  -8.2573  -8.2313  -8.1375  -8.1185  -7.9817  -7.9414
    -7.9050  -7.8934  -7.7778  -7.6169  -7.3276  -7.2403  -7.2173  -6.9387
    -6.9032  -6.8410  -6.8361  -6.5847  -6.4818  -6.1621  -6.1281  -6.1269
    -5.9979  -5.9439  -5.9324  -5.8565  -5.7362  -5.6809  -5.6681  -5.6221
    -5.6169  -5.5713  -5.4899  -5.4494  -5.4452  -5.4297  -5.2752  -5.2488
    -5.2155  -5.2119  -5.2051  -5.0170  -5.0053  -4.9761  -4.8069  -4.7908
    -4.7743  -4.6540  -4.5359  -4.5242  -4.4598  -4.4507  -4.3924  -4.3834
    -4.3643  -4.3435  -4.0807  -4.0562  -4.0423  -3.9318  -3.8621  -3.8575
    -3.8063  -3.7495  -3.7184  -3.6741  -3.6463  -3.6260  -3.6195  -3.5983
    -3.5762  -3.5680  -3.4836  -3.4778  -3.4535  -3.4230  -3.3565  -3.2639
    -3.2004  -3.1740  -3.1404  -3.0669  -3.0356  -2.9166  -2.8800  -2.6160
    -0.7544  -0.6765  -0.5966  -0.5209   0.0709   0.1248   0.1868   0.2653
     0.3049   0.4677   0.4948   0.5511   0.6065   0.6873   0.7024   0.7087
     0.7626   0.7821   0.7975   1.0619   1.0890   1.1274   1.2383   1.2657
     1.5159   1.5865   1.6426   1.8579   1.9523   1.9756   1.9929   2.0571
     2.2097   2.3410   2.3770   2.4157   2.4474   2.5502   2.7046   2.7160
     2.7538   2.7815   2.8170   2.9040   2.9478   2.9689   3.0272   3.0791
     3.1091   3.2067   3.2458   3.3199   3.4102   3.4703   3.5340   3.5708
     3.6375   3.6514   3.7570   3.7908   3.8486   3.8750   3.9460   4.0139
     4.0453   4.0710   4.0992   4.1437   4.1826   4.2236   4.2758   4.3085
     4.3313   4.3538   4.4101   4.4485   4.5042   4.5547   4.6095   4.6229
     4.6701   4.7236

          k =-0.2500-0.2406 0.2308 ( 96032 PWs)   bands (ev):

  -113.9636-113.9603-113.9583-113.9534 -71.4360 -71.4348 -71.4329 -71.4314
   -71.4310 -71.4300 -71.4255 -71.4250 -71.2649 -71.2613 -71.2586 -71.2548
   -22.5478 -19.3550 -18.4890 -18.3901 -18.3660 -18.3448 -17.5458 -17.5406
   -17.5351 -17.5164 -17.1154 -17.1031 -17.0946 -17.0843 -17.0522 -16.8890
   -16.8592 -16.8402 -16.8322 -16.8309 -16.8286 -16.8233 -16.8217 -16.8160
   -16.8077 -16.8062 -16.7904 -16.7537 -16.7238 -16.6872 -16.0071 -15.9595
   -15.9110 -15.6631 -15.6216 -15.5564 -15.5430 -15.4572 -15.2930 -15.2472
   -15.2016 -15.0746 -14.9766 -14.9582 -14.9262 -14.9088 -14.8507 -12.6631
   -12.2712 -12.1846 -12.1137 -11.4089 -10.9195 -10.5957 -10.5045 -10.4195
   -10.1112  -9.3411  -9.1647  -9.0951  -9.0216  -8.5401  -8.4957  -8.4611
    -8.4573  -8.3309  -8.2581  -8.1930  -8.1594  -8.1192  -7.9754  -7.9517
    -7.9016  -7.8955  -7.7784  -7.6132  -7.3281  -7.2370  -7.2280  -6.9231
    -6.8832  -6.8662  -6.8399  -6.5853  -6.4820  -6.1549  -6.1361  -6.1276
    -5.9802  -5.9798  -5.9108  -5.8559  -5.7387  -5.6792  -5.6498  -5.6442
    -5.6079  -5.5799  -5.4825  -5.4596  -5.4391  -5.4270  -5.2722  -5.2580
    -5.2256  -5.2163  -5.1905  -5.0192  -4.9939  -4.9856  -4.8034  -4.7961
    -4.7774  -4.6477  -4.5337  -4.5035  -4.4738  -4.4593  -4.4037  -4.3719
    -4.3590  -4.3485  -4.0816  -4.0570  -4.0399  -3.9324  -3.8689  -3.8361
    -3.8200  -3.7511  -3.7332  -3.6554  -3.6446  -3.6402  -3.6276  -3.5922
    -3.5664  -3.5394  -3.5092  -3.4786  -3.4548  -3.4307  -3.3517  -3.2298
    -3.2180  -3.1713  -3.1598  -3.0757  -3.0261  -2.9206  -2.8727  -2.6154
    -0.7555  -0.6710  -0.6040  -0.5187   0.0776   0.1267   0.1649   0.2833
     0.3214   0.4363   0.5144   0.5644   0.5790   0.6724   0.6880   0.7146
     0.7449   0.8042   0.8306   1.0354   1.0742   1.1759   1.2116   1.2781
     1.5130   1.5987   1.6355   1.8562   1.9601   1.9746   1.9913   2.0498
     2.2189   2.3477   2.3666   2.4239   2.4300   2.5441   2.7069   2.7208
     2.7539   2.7676   2.8578   2.9016   2.9286   2.9712   3.0178   3.0517
     3.1037   3.2332   3.2612   3.3449   3.3994   3.4380   3.5228   3.5943
     3.6333   3.6815   3.7412   3.7624   3.8347   3.9085   3.9744   4.0217
     4.0367   4.0523   4.0926   4.1510   4.1797   4.2171   4.2573   4.2883
     4.3331   4.3707   4.4179   4.4684   4.5211   4.5415   4.5790   4.6353
     4.6800   4.7373

          k = 0.3333-0.0962 0.2308 ( 96032 PWs)   bands (ev):

  -113.9636-113.9603-113.9583-113.9534 -71.4360 -71.4348 -71.4329 -71.4314
   -71.4310 -71.4300 -71.4255 -71.4250 -71.2649 -71.2613 -71.2586 -71.2548
   -22.5478 -19.3550 -18.4890 -18.3900 -18.3659 -18.3451 -17.5461 -17.5401
   -17.5348 -17.5167 -17.1134 -17.1043 -17.0953 -17.0844 -17.0525 -16.8891
   -16.8579 -16.8418 -16.8323 -16.8308 -16.8270 -16.8245 -16.8206 -16.8165
   -16.8086 -16.8058 -16.7902 -16.7531 -16.7243 -16.6875 -16.0056 -15.9599
   -15.9119 -15.6649 -15.6205 -15.5561 -15.5447 -15.4555 -15.2912 -15.2468
   -15.2022 -15.0748 -14.9783 -14.9557 -14.9254 -14.9156 -14.8467 -12.6631
   -12.2709 -12.1846 -12.1141 -11.4089 -10.9189 -10.5953 -10.5025 -10.4230
   -10.1105  -9.3410  -9.1640  -9.0957  -9.0227  -8.5417  -8.4943  -8.4625
    -8.4565  -8.3314  -8.2585  -8.1876  -8.1612  -8.1210  -7.9794  -7.9464
    -7.9000  -7.8905  -7.7826  -7.6182  -7.3257  -7.2360  -7.2293  -6.9226
    -6.8858  -6.8648  -6.8392  -6.5846  -6.4818  -6.1555  -6.1387  -6.1269
    -5.9841  -5.9771  -5.9091  -5.8590  -5.7365  -5.6796  -5.6508  -5.6435
    -5.6092  -5.5780  -5.4838  -5.4581  -5.4360  -5.4282  -5.2760  -5.2578
    -5.2289  -5.2122  -5.1840  -5.0222  -4.9880  -4.9858  -4.8082  -4.7942
    -4.7776  -4.6459  -4.5350  -4.5060  -4.4726  -4.4590  -4.4030  -4.3707
    -4.3650  -4.3483  -4.0800  -4.0570  -4.0426  -3.9332  -3.8671  -3.8355
    -3.8217  -3.7502  -3.7338  -3.6540  -3.6473  -3.6395  -3.6279  -3.5954
    -3.5686  -3.5389  -3.5060  -3.4785  -3.4596  -3.4171  -3.3555  -3.2333
    -3.2140  -3.1755  -3.1547  -3.0734  -3.0274  -2.9209  -2.8740  -2.6165
    -0.7542  -0.6729  -0.6018  -0.5188   0.0782   0.1237   0.1650   0.2821
     0.3233   0.4326   0.5179   0.5658   0.5778   0.6719   0.6840   0.7166
     0.7485   0.7997   0.8336   1.0384   1.0720   1.1778   1.2074   1.2796
     1.5044   1.6000   1.6408   1.8614   1.9594   1.9742   1.9920   2.0466
     2.2171   2.3542   2.3739   2.4125   2.4302   2.5429   2.7059   2.7165
     2.7481   2.7824   2.8555   2.9065   2.9229   2.9900   3.0138   3.0468
     3.1644   3.2287   3.2709   3.3358   3.3715   3.4056   3.4625   3.5646
     3.6188   3.6846   3.7451   3.7705   3.8296   3.9692   3.9911   4.0145
     4.0364   4.0767   4.1007   4.1565   4.1776   4.2057   4.2705   4.2963
     4.3436   4.3803   4.4154   4.4605   4.5128   4.5445   4.5833   4.6152
     4.6658   4.7199

          k =-0.0833 0.5292 0.2308 ( 96076 PWs)   bands (ev):

  -113.9636-113.9603-113.9583-113.9534 -71.4360 -71.4348 -71.4329 -71.4314
   -71.4310 -71.4300 -71.4255 -71.4250 -71.2649 -71.2613 -71.2586 -71.2548
   -22.5478 -19.3550 -18.4525 -18.4277 -18.3701 -18.3432 -17.5408 -17.5387
   -17.5317 -17.5236 -17.1187 -17.1116 -17.1058 -17.0937 -16.9841 -16.9458
   -16.8546 -16.8366 -16.8319 -16.8291 -16.8258 -16.8250 -16.8224 -16.8172
   -16.8091 -16.8057 -16.7868 -16.7741 -16.7235 -16.6762 -15.9789 -15.9244
   -15.7652 -15.7135 -15.6857 -15.6520 -15.5214 -15.5014 -15.2813 -15.2290
   -15.0940 -15.0724 -15.0246 -14.9917 -14.9557 -14.9057 -14.8703 -12.5023
   -12.4179 -12.1847 -12.0962 -11.4088 -10.7976 -10.7266 -10.4938 -10.3910
   -10.1112  -9.2730  -9.2314  -9.0590  -8.9566  -8.5639  -8.5600  -8.5364
    -8.5019  -8.3330  -8.1796  -8.1746  -8.1423  -8.1224  -8.1047  -8.0417
    -7.9638  -7.9509  -7.7894  -7.4552  -7.3691  -7.3549  -7.2391  -6.8716
    -6.8473  -6.7341  -6.7187  -6.5878  -6.4820  -6.1200  -6.0850  -5.9938
    -5.9760  -5.9725  -5.9073  -5.8384  -5.7939  -5.7554  -5.6323  -5.6202
    -5.5730  -5.5607  -5.4902  -5.4618  -5.4492  -5.4327  -5.3250  -5.3080
    -5.2033  -5.1936  -5.1564  -5.0932  -5.0656  -5.0577  -4.7831  -4.7682
    -4.7323  -4.6829  -4.4956  -4.4702  -4.4553  -4.4377  -4.3595  -4.3453
    -4.3098  -4.2966  -4.1311  -4.1172  -4.0880  -4.0531  -3.8023  -3.7795
    -3.7712  -3.7666  -3.7171  -3.6683  -3.6575  -3.6465  -3.6370  -3.6110
    -3.6006  -3.5227  -3.4737  -3.4544  -3.4420  -3.3961  -3.3349  -3.2913
    -3.2696  -3.2337  -3.2133  -3.1172  -3.0218  -3.0086  -2.8952  -2.6158
    -0.6974  -0.6282  -0.5844  -0.5360  -0.0082   0.1025   0.2228   0.2586
     0.2627   0.4278   0.5483   0.6208   0.6891   0.6925   0.7038   0.7244
     0.7507   0.8266   0.9461   1.0106   1.0308   1.1032   1.1927   1.2560
     1.4872   1.6394   1.7519   1.7961   1.9313   1.9598   1.9757   2.0080
     2.2562   2.2699   2.3149   2.3268   2.4769   2.5192   2.7417   2.7703
     2.7835   2.8562   2.8739   2.9237   2.9852   3.0071   3.0358   3.0474
     3.1185   3.2178   3.2229   3.2452   3.3163   3.3452   3.5269   3.5758
     3.5953   3.6634   3.6982   3.7350   3.7969   3.8628   3.9624   3.9850
     4.0322   4.0724   4.1283   4.1506   4.2606   4.2886   4.3322   4.3945
     4.4157   4.4660   4.4973   4.5214   4.5434   4.5856   4.6333   4.6867
     4.7074   4.8014

          k =-0.4167 0.3368-0.2308 ( 96076 PWs)   bands (ev):

  -113.9636-113.9603-113.9583-113.9534 -71.4360 -71.4348 -71.4329 -71.4314
   -71.4310 -71.4300 -71.4255 -71.4250 -71.2649 -71.2613 -71.2586 -71.2548
   -22.5478 -19.3550 -18.4518 -18.4286 -18.3693 -18.3438 -17.5401 -17.5388
   -17.5319 -17.5240 -17.1187 -17.1107 -17.1040 -17.0962 -16.9833 -16.9466
   -16.8543 -16.8365 -16.8319 -16.8305 -16.8265 -16.8252 -16.8185 -16.8181
   -16.8101 -16.8063 -16.7851 -16.7753 -16.7237 -16.6766 -15.9767 -15.9247
   -15.7653 -15.7166 -15.6887 -15.6507 -15.5232 -15.4967 -15.2773 -15.2311
   -15.0910 -15.0729 -15.0269 -14.9930 -14.9591 -14.9019 -14.8711 -12.5021
   -12.4172 -12.1854 -12.0963 -11.4088 -10.7961 -10.7253 -10.4951 -10.3932
   -10.1102  -9.2724  -9.2317  -9.0589  -8.9602  -8.5718  -8.5557  -8.5407
    -8.4847  -8.3325  -8.2071  -8.1718  -8.1514  -8.0961  -8.0921  -8.0563
    -7.9603  -7.9506  -7.7871  -7.4584  -7.3760  -7.3521  -7.2329  -6.8691
    -6.8616  -6.7274  -6.7168  -6.5855  -6.4816  -6.1262  -6.0825  -6.0004
    -5.9731  -5.9624  -5.9061  -5.8568  -5.7895  -5.7472  -5.6478  -5.6156
    -5.5763  -5.5484  -5.4797  -5.4720  -5.4553  -5.4395  -5.3168  -5.2828
    -5.2215  -5.1854  -5.1506  -5.1086  -5.0691  -5.0453  -4.7907  -4.7671
    -4.7238  -4.6917  -4.5052  -4.4827  -4.4399  -4.4298  -4.3574  -4.3447
    -4.3138  -4.2993  -4.1393  -4.1113  -4.0839  -4.0555  -3.7970  -3.7874
    -3.7623  -3.7535  -3.6979  -3.6922  -3.6752  -3.6492  -3.6238  -3.6142
    -3.6065  -3.5357  -3.4589  -3.4409  -3.4315  -3.4039  -3.3501  -3.3129
    -3.2527  -3.2398  -3.2068  -3.0790  -3.0364  -3.0283  -2.8948  -2.6166
    -0.7007  -0.6290  -0.5818  -0.5326  -0.0096   0.1083   0.2214   0.2497
     0.2558   0.4442   0.5403   0.6338   0.6648   0.7012   0.7179   0.7340
     0.7675   0.8124   0.9391   0.9563   1.0853   1.1055   1.1892   1.2468
     1.4882   1.6240   1.7413   1.8078   1.9349   1.9537   1.9721   2.0304
     2.2460   2.2741   2.2805   2.3637   2.4552   2.5413   2.7476   2.7668
     2.7771   2.8234   2.8717   2.9398   3.0201   3.0424   3.0575   3.0793
     3.1109   3.1647   3.1919   3.2414   3.2920   3.3402   3.4821   3.5744
     3.6124   3.6920   3.7082   3.7668   3.8021   3.8823   3.9029   4.0262
     4.0298   4.0730   4.1219   4.1757   4.2220   4.2687   4.3417   4.4127
     4.4372   4.4588   4.4992   4.5263   4.5710   4.5777   4.6146   4.6417
     4.7064   4.7961

          k = 0.5000 0.1925-0.2308 ( 96076 PWs)   bands (ev):

  -113.9636-113.9603-113.9583-113.9534 -71.4360 -71.4348 -71.4329 -71.4314
   -71.4310 -71.4300 -71.4255 -71.4250 -71.2649 -71.2613 -71.2586 -71.2548
   -22.5478 -19.3550 -18.4515 -18.4294 -18.3685 -18.3441 -17.5410 -17.5361
   -17.5343 -17.5236 -17.1185 -17.1101 -17.1050 -17.0956 -16.9829 -16.9470
   -16.8543 -16.8371 -16.8322 -16.8292 -16.8278 -16.8244 -16.8219 -16.8154
   -16.8096 -16.8062 -16.7838 -16.7771 -16.7229 -16.6770 -15.9765 -15.9260
   -15.7641 -15.7169 -15.6880 -15.6497 -15.5235 -15.4977 -15.2766 -15.2342
   -15.0934 -15.0686 -15.0307 -14.9896 -14.9536 -14.9008 -14.8772 -12.5017
   -12.4177 -12.1847 -12.0968 -11.4086 -10.7966 -10.7262 -10.4942 -10.3923
   -10.1108  -9.2717  -9.2335  -9.0580  -8.9597  -8.5728  -8.5527  -8.5406
    -8.4858  -8.3313  -8.2059  -8.1707  -8.1518  -8.1007  -8.0933  -8.0566
    -7.9612  -7.9546  -7.7803  -7.4593  -7.3741  -7.3526  -7.2332  -6.8681
    -6.8624  -6.7288  -6.7195  -6.5842  -6.4816  -6.1232  -6.0791  -6.0021
    -5.9726  -5.9631  -5.9027  -5.8560  -5.7921  -5.7456  -5.6503  -5.6164
    -5.5794  -5.5481  -5.4799  -5.4690  -5.4587  -5.4330  -5.3178  -5.2866
    -5.2205  -5.1875  -5.1547  -5.1107  -5.0688  -5.0456  -4.7899  -4.7625
    -4.7248  -4.6971  -4.5027  -4.4834  -4.4381  -4.4315  -4.3549  -4.3486
    -4.3108  -4.2930  -4.1308  -4.1153  -4.0845  -4.0563  -3.7964  -3.7924
    -3.7653  -3.7544  -3.6965  -3.6864  -3.6763  -3.6437  -3.6268  -3.6165
    -3.6031  -3.5365  -3.4457  -3.4382  -3.4330  -3.4082  -3.3569  -3.3244
    -3.2527  -3.2424  -3.2071  -3.0776  -3.0351  -3.0276  -2.8948  -2.6156
    -0.7014  -0.6291  -0.5806  -0.5350  -0.0104   0.1070   0.2267   0.2501
     0.2560   0.4464   0.5408   0.6315   0.6641   0.6978   0.7183   0.7302
     0.7731   0.8165   0.9431   0.9533   1.0841   1.1050   1.1902   1.2463
     1.4915   1.6307   1.7409   1.7973   1.9336   1.9519   1.9691   2.0283
     2.2492   2.2633   2.2825   2.3714   2.4547   2.5563   2.7363   2.7717
     2.7823   2.8225   2.8553   2.9223   3.0034   3.0228   3.0542   3.0679
     3.0729   3.1867   3.2138   3.2530   3.3158   3.3841   3.5598   3.5828
     3.6227   3.6701   3.7132   3.7578   3.8146   3.8553   3.8889   3.9920
     4.0335   4.0858   4.1246   4.1705   4.2555   4.2831   4.3303   4.3580
     4.4223   4.4510   4.4727   4.4997   4.5726   4.5905   4.6391   4.6494
     4.7346   4.7774

          k =-0.4167-0.3368 0.2308 ( 96076 PWs)   bands (ev):

  -113.9636-113.9603-113.9583-113.9534 -71.4360 -71.4348 -71.4329 -71.4314
   -71.4310 -71.4300 -71.4255 -71.4250 -71.2649 -71.2613 -71.2586 -71.2548
   -22.5478 -19.3550 -18.4516 -18.4293 -18.3686 -18.3440 -17.5407 -17.5373
   -17.5334 -17.5236 -17.1184 -17.1110 -17.1039 -17.0959 -16.9832 -16.9465
   -16.8548 -16.8365 -16.8322 -16.8296 -16.8279 -16.8245 -16.8217 -16.8155
   -16.8094 -16.8063 -16.7840 -16.7769 -16.7232 -16.6766 -15.9783 -15.9235
   -15.7663 -15.7148 -15.6855 -15.6537 -15.5195 -15.5007 -15.2784 -15.2313
   -15.0964 -15.0700 -15.0265 -14.9910 -14.9534 -14.8985 -14.8793 -12.5017
   -12.4178 -12.1848 -12.0966 -11.4086 -10.7971 -10.7257 -10.4948 -10.3916
   -10.1109  -9.2721  -9.2328  -9.0597  -8.9575  -8.5619  -8.5599  -8.5357
    -8.5008  -8.3313  -8.1814  -8.1758  -8.1420  -8.1230  -8.1042  -8.0465
    -7.9620  -7.9540  -7.7804  -7.4573  -7.3764  -7.3511  -7.2367  -6.8697
    -6.8510  -6.7348  -6.7208  -6.5844  -6.4816  -6.1196  -6.0847  -5.9946
    -5.9756  -5.9719  -5.9032  -5.8407  -5.7986  -5.7474  -5.6362  -5.6287
    -5.5737  -5.5585  -5.4893  -5.4591  -5.4504  -5.4321  -5.3150  -5.3057
    -5.2022  -5.1958  -5.1625  -5.0989  -5.0612  -5.0583  -4.7873  -4.7662
    -4.7349  -4.6859  -4.4963  -4.4652  -4.4555  -4.4392  -4.3564  -4.3463
    -4.3091  -4.2947  -4.1242  -4.1201  -4.0855  -4.0566  -3.7996  -3.7817
    -3.7702  -3.7650  -3.7128  -3.6701  -3.6546  -3.6513  -3.6388  -3.6112
    -3.6009  -3.5232  -3.4652  -3.4531  -3.4356  -3.3930  -3.3537  -3.2955
    -3.2793  -3.2272  -3.2099  -3.1171  -3.0235  -3.0089  -2.8969  -2.6154
    -0.6993  -0.6315  -0.5828  -0.5327  -0.0083   0.1024   0.2222   0.2584
     0.2647   0.4311   0.5534   0.6210   0.6860   0.6958   0.6978   0.7255
     0.7551   0.8300   0.9432   1.0109   1.0278   1.1019   1.1963   1.2564
     1.4879   1.6381   1.7462   1.7916   1.9337   1.9508   1.9814   2.0102
     2.2512   2.2694   2.3065   2.3351   2.4571   2.5530   2.7386   2.7665
     2.7787   2.8372   2.8763   2.9198   2.9834   3.0064   3.0395   3.0471
     3.1118   3.2093   3.2265   3.2497   3.3102   3.3810   3.5563   3.5876
     3.6039   3.6658   3.7016   3.7387   3.8080   3.8596   3.9544   3.9843
[...]
     4.0295   4.0688   4.1041   4.1834   4.2246   4.2715   4.3027   4.3264
     4.3561   4.4152   4.4485   4.4960   4.5382   4.5734   4.5901   4.6149
     4.6534   4.7449

          k =-0.1667 0.3849 0.2308 ( 96066 PWs)   bands (ev):

  -113.9636-113.9603-113.9583-113.9534 -71.4360 -71.4348 -71.4329 -71.4314
   -71.4310 -71.4300 -71.4255 -71.4250 -71.2649 -71.2613 -71.2586 -71.2548
   -22.5478 -19.3550 -18.4757 -18.3956 -18.3808 -18.3397 -17.5431 -17.5415
   -17.5314 -17.5202 -17.1155 -17.1124 -17.0963 -17.0919 -17.0264 -16.8930
   -16.8732 -16.8349 -16.8320 -16.8301 -16.8271 -16.8251 -16.8211 -16.8171
   -16.8087 -16.8055 -16.7892 -16.7571 -16.7430 -16.6695 -16.0043 -15.9100
   -15.8792 -15.7046 -15.6035 -15.5913 -15.5634 -15.4756 -15.2949 -15.2072
   -15.1815 -15.0761 -14.9938 -14.9601 -14.9362 -14.9250 -14.8557 -12.6036
   -12.2905 -12.2366 -12.0849 -11.4089 -10.8754 -10.6120 -10.5534 -10.3824
   -10.1108  -9.3161  -9.1635  -9.1235  -8.9671  -8.5664  -8.5435  -8.4981
    -8.4224  -8.3327  -8.2557  -8.2207  -8.1405  -8.1110  -8.0406  -7.9645
    -7.9436  -7.9314  -7.7882  -7.5529  -7.3860  -7.2404  -7.2280  -6.8905
    -6.8358  -6.8264  -6.7795  -6.5868  -6.4823  -6.1223  -6.0973  -6.0836
    -5.9995  -5.9647  -5.8999  -5.8646  -5.7454  -5.7191  -5.6497  -5.6217
    -5.5982  -5.5717  -5.4758  -5.4665  -5.4369  -5.4217  -5.2959  -5.2750
    -5.2272  -5.2117  -5.1929  -5.0565  -5.0316  -5.0176  -4.7934  -4.7813
    -4.7544  -4.6497  -4.5216  -4.5144  -4.4561  -4.4214  -4.3880  -4.3514
    -4.3447  -4.3317  -4.0928  -4.0600  -4.0529  -4.0108  -3.8527  -3.8189
    -3.7787  -3.7538  -3.7494  -3.6753  -3.6668  -3.6426  -3.6323  -3.5870
    -3.5448  -3.5209  -3.5090  -3.5039  -3.4531  -3.4071  -3.3286  -3.2572
    -3.2143  -3.1903  -3.1714  -3.1606  -3.0744  -2.9123  -2.8713  -2.6161
    -0.7056  -0.6819  -0.5724  -0.5356   0.0013   0.1614   0.1892   0.2467
     0.2583   0.4948   0.5205   0.6124   0.6401   0.6818   0.6951   0.7265
     0.7451   0.8037   0.8338   0.9602   1.0810   1.1920   1.2021   1.2645
     1.4715   1.6644   1.6861   1.8541   1.9407   1.9541   1.9690   2.0363
     2.2502   2.3245   2.3518   2.3713   2.4577   2.5184   2.7187   2.7389
     2.7659   2.8018   2.8894   2.9288   2.9688   2.9866   3.0200   3.0629
     3.1431   3.2117   3.2465   3.2658   3.3184   3.4126   3.5079   3.5522
     3.6239   3.6706   3.6940   3.7370   3.8019   3.8995   3.9625   3.9970
     4.0352   4.0781   4.1243   4.1999   4.2070   4.2624   4.3076   4.3253
     4.3735   4.3997   4.4728   4.5043   4.5418   4.5708   4.5850   4.6157
     4.6491   4.7380

          k =-0.2500-0.1443 0.2308 ( 96098 PWs)   bands (ev):

  -113.9636-113.9603-113.9583-113.9534 -71.4360 -71.4348 -71.4329 -71.4314
   -71.4310 -71.4300 -71.4255 -71.4250 -71.2649 -71.2613 -71.2586 -71.2548
   -22.5478 -19.3550 -18.4984 -18.3829 -18.3592 -18.3479 -17.5474 -17.5415
   -17.5369 -17.5131 -17.1154 -17.0952 -17.0929 -17.0790 -17.0697 -16.8823
   -16.8508 -16.8485 -16.8324 -16.8309 -16.8288 -16.8231 -16.8220 -16.8157
   -16.8070 -16.8063 -16.7914 -16.7473 -16.7093 -16.7034 -16.0027 -15.9972
   -15.9404 -15.6321 -15.6228 -15.5601 -15.5079 -15.4444 -15.2871 -15.2761
   -15.2219 -15.0749 -14.9667 -14.9569 -14.9305 -14.8861 -14.8426 -12.7062
   -12.2464 -12.1514 -12.1435 -11.4090 -10.9498 -10.5744 -10.4736 -10.4555
   -10.1110  -9.3580  -9.1587  -9.0755  -9.0711  -8.5125  -8.4807  -8.4447
    -8.4329  -8.3307  -8.2840  -8.1810  -8.1438  -8.1237  -7.9357  -7.9221
    -7.8780  -7.8641  -7.7746  -7.6563  -7.2713  -7.2566  -7.2163  -6.9609
    -6.9227  -6.8968  -6.8942  -6.5849  -6.4820  -6.1747  -6.1674  -6.1601
    -5.9858  -5.9599  -5.9299  -5.8640  -5.7346  -5.6641  -5.6510  -5.6382
    -5.6221  -5.5781  -5.5008  -5.4473  -5.4377  -5.4265  -5.2567  -5.2404
    -5.2217  -5.2036  -5.2015  -4.9890  -4.9774  -4.9582  -4.8118  -4.8019
    -4.7840  -4.6428  -4.5429  -4.5088  -4.4893  -4.4779  -4.4103  -4.3968
    -4.3799  -4.3622  -4.0773  -4.0591  -4.0389  -3.8848  -3.8755  -3.8618
    -3.8443  -3.7495  -3.7116  -3.6586  -3.6399  -3.6250  -3.6112  -3.5932
    -3.5826  -3.5529  -3.4911  -3.4740  -3.4606  -3.4455  -3.3549  -3.2297
    -3.1961  -3.1654  -3.1354  -2.9941  -2.9782  -2.9682  -2.8439  -2.6157
    -0.8224  -0.6339  -0.6264  -0.5220   0.0838   0.1441   0.1604   0.2872
     0.3620   0.3873   0.5037   0.5243   0.5512   0.6553   0.7020   0.7090
     0.7605   0.7900   0.8084   1.0702   1.1098   1.1490   1.2304   1.2830
     1.5346   1.5591   1.6151   1.8725   1.9702   2.0090   2.0202   2.0505
     2.1875   2.3635   2.3920   2.4098   2.4538   2.5489   2.6899   2.7165
     2.7503   2.7876   2.8020   2.8795   2.9302   2.9557   3.0044   3.0533
     3.1147   3.2224   3.2868   3.3538   3.4129   3.4958   3.5408   3.5737
     3.6401   3.6839   3.7427   3.7969   3.8654   3.9545   3.9800   3.9998
     4.0319   4.0468   4.0587   4.1297   4.1540   4.1861   4.2319   4.2707
     4.3085   4.3312   4.3732   4.4294   4.4989   4.5360   4.5888   4.6373
     4.6765   4.6940

          k = 0.0000-0.2887-0.2308 ( 96098 PWs)   bands (ev):

  -113.9636-113.9603-113.9583-113.9534 -71.4360 -71.4348 -71.4329 -71.4314
   -71.4310 -71.4300 -71.4255 -71.4250 -71.2649 -71.2613 -71.2586 -71.2548
   -22.5478 -19.3550 -18.4984 -18.3817 -18.3619 -18.3463 -17.5463 -17.5438
   -17.5358 -17.5129 -17.1170 -17.0976 -17.0885 -17.0794 -17.0702 -16.8829
   -16.8514 -16.8473 -16.8320 -16.8307 -16.8279 -16.8244 -16.8221 -16.8159
   -16.8076 -16.8056 -16.7918 -16.7466 -16.7117 -16.7013 -16.0039 -15.9971
   -15.9394 -15.6299 -15.6231 -15.5619 -15.5068 -15.4456 -15.2926 -15.2712
   -15.2212 -15.0759 -14.9653 -14.9564 -14.9319 -14.8882 -14.8401 -12.7063
   -12.2471 -12.1529 -12.1412 -11.4091 -10.9500 -10.5758 -10.4740 -10.4533
   -10.1113  -9.3580  -9.1580  -9.0776  -9.0687  -8.5133  -8.4798  -8.4462
    -8.4328  -8.3325  -8.2839  -8.1831  -8.1390  -8.1233  -7.9316  -7.9222
    -7.8804  -7.8625  -7.7832  -7.6518  -7.2751  -7.2564  -7.2122  -6.9619
    -6.9213  -6.8982  -6.8917  -6.5860  -6.4828  -6.1760  -6.1652  -6.1599
    -5.9859  -5.9614  -5.9286  -5.8661  -5.7384  -5.6566  -5.6490  -5.6365
    -5.6267  -5.5774  -5.5041  -5.4479  -5.4379  -5.4231  -5.2579  -5.2376
    -5.2319  -5.2023  -5.1965  -4.9928  -4.9730  -4.9583  -4.8140  -4.7996
    -4.7825  -4.6397  -4.5430  -4.5065  -4.4893  -4.4842  -4.4132  -4.3944
    -4.3847  -4.3572  -4.0770  -4.0534  -4.0470  -3.8855  -3.8754  -3.8614
    -3.8442  -3.7510  -3.7111  -3.6574  -3.6435  -3.6231  -3.6080  -3.5949
    -3.5851  -3.5481  -3.4898  -3.4828  -3.4596  -3.4466  -3.3503  -3.2262
    -3.1947  -3.1733  -3.1291  -2.9941  -2.9809  -2.9661  -2.8425  -2.6157
    -0.8232  -0.6319  -0.6245  -0.5256   0.0836   0.1443   0.1609   0.2879
     0.3611   0.3829   0.5087   0.5218   0.5480   0.6553   0.6981   0.7153
     0.7633   0.7845   0.8098   1.0702   1.1135   1.1469   1.2290   1.2830
     1.5356   1.5581   1.6148   1.8741   1.9717   2.0121   2.0224   2.0483
     2.1901   2.3614   2.3970   2.4047   2.4683   2.5264   2.6828   2.7199
     2.7534   2.7933   2.8036   2.8898   2.9384   2.9492   3.0178   3.0294
     3.1397   3.2256   3.2896   3.3177   3.4115   3.4815   3.5410   3.5840
     3.6265   3.6699   3.7299   3.8009   3.8797   3.9586   3.9712   3.9909
     4.0334   4.0577   4.0846   4.1228   4.1530   4.1980   4.2147   4.2673
     4.3041   4.3284   4.3675   4.4414   4.4738   4.5286   4.6039   4.6354
     4.6729   4.7104

          k =-0.4167 0.7217 0.2308 ( 96084 PWs)   bands (ev):

  -113.9636-113.9603-113.9583-113.9534 -71.4360 -71.4348 -71.4329 -71.4314
   -71.4310 -71.4300 -71.4255 -71.4250 -71.2649 -71.2613 -71.2586 -71.2548
   -22.5478 -19.3550 -18.4396 -18.4335 -18.3833 -18.3377 -17.5410 -17.5368
   -17.5331 -17.5234 -17.1226 -17.1108 -17.1052 -17.0977 -16.9574 -16.9539
   -16.8717 -16.8334 -16.8322 -16.8291 -16.8271 -16.8246 -16.8215 -16.8160
   -16.8101 -16.8055 -16.7810 -16.7784 -16.7441 -16.6581 -15.9876 -15.8813
   -15.7461 -15.7365 -15.7308 -15.6200 -15.5248 -15.5193 -15.2872 -15.1977
   -15.0883 -15.0689 -15.0555 -15.0031 -14.9399 -14.8974 -14.8856 -12.4457
   -12.4390 -12.2431 -12.0680 -11.4086 -10.7532 -10.7388 -10.5557 -10.3563
   -10.1106  -9.2424  -9.2403  -9.1075  -8.9094  -8.5882  -8.5652  -8.5562
    -8.4465  -8.3314  -8.2513  -8.1485  -8.1409  -8.1334  -8.0884  -8.0463
    -7.9849  -7.9792  -7.7836  -7.4188  -7.3966  -7.3792  -7.2224  -6.8583
    -6.8244  -6.7289  -6.7116  -6.5846  -6.4816  -6.1006  -6.0445  -6.0037
    -5.9498  -5.9474  -5.9448  -5.8469  -5.8298  -5.7474  -5.6450  -5.6073
    -5.5790  -5.5475  -5.5032  -5.4524  -5.4386  -5.4142  -5.3177  -5.2982
    -5.2341  -5.1816  -5.1529  -5.1385  -5.0900  -5.0698  -4.7879  -4.7475
    -4.7117  -4.6832  -4.5101  -4.4781  -4.4493  -4.4054  -4.3498  -4.3364
    -4.3124  -4.2926  -4.1364  -4.1250  -4.1023  -4.0588  -3.8005  -3.7923
    -3.7864  -3.7561  -3.7064  -3.6877  -3.6667  -3.6362  -3.6292  -3.6207
    -3.5945  -3.5041  -3.4554  -3.4435  -3.4232  -3.4014  -3.3609  -3.3355
    -3.3018  -3.2271  -3.2016  -3.0792  -3.0720  -3.0314  -2.8455  -2.6157
    -0.7250  -0.5978  -0.5632  -0.5537  -0.0655   0.1499   0.1961   0.2230
     0.2385   0.5174   0.5357   0.6466   0.6668   0.6964   0.7120   0.7418
     0.7825   0.8096   0.8776   0.9609   1.0404   1.1528   1.2037   1.2606
     1.4326   1.7257   1.7945   1.8181   1.9279   1.9436   1.9720   1.9982
     2.2526   2.2654   2.2833   2.3414   2.4628   2.5532   2.7467   2.7593
     2.7827   2.8585   2.8718   2.9395   2.9934   3.0476   3.0537   3.0745
     3.1130   3.1451   3.2131   3.2471   3.3073   3.3447   3.5168   3.5837
     3.5938   3.6350   3.6802   3.7583   3.8164   3.8623   3.9422   3.9805
     4.0450   4.0722   4.1672   4.2011   4.2369   4.2833   4.3112   4.3512
     4.3866   4.4188   4.4545   4.5146   4.5439   4.6222   4.6501   4.6827
     4.7521   4.8018

          k = 0.8333 0.0000-0.2308 ( 96084 PWs)   bands (ev):

  -113.9636-113.9603-113.9583-113.9534 -71.4360 -71.4348 -71.4329 -71.4314
   -71.4310 -71.4300 -71.4255 -71.4250 -71.2649 -71.2613 -71.2586 -71.2548
   -22.5478 -19.3550 -18.4424 -18.4300 -18.3844 -18.3373 -17.5412 -17.5379
   -17.5316 -17.5235 -17.1226 -17.1123 -17.1056 -17.0962 -16.9612 -16.9502
   -16.8715 -16.8336 -16.8317 -16.8289 -16.8259 -16.8249 -16.8217 -16.8176
   -16.8096 -16.8052 -16.7849 -16.7742 -16.7446 -16.6577 -15.9882 -15.8821
   -15.7456 -15.7343 -15.7310 -15.6188 -15.5264 -15.5201 -15.2887 -15.1965
   -15.0895 -15.0650 -15.0571 -15.0044 -14.9400 -14.9056 -14.8768 -12.4485
   -12.4367 -12.2429 -12.0677 -11.4087 -10.7550 -10.7383 -10.5550 -10.3555
   -10.1109  -9.2484  -9.2339  -9.1071  -8.9084  -8.5895  -8.5644  -8.5572
    -8.4487  -8.3331  -8.2481  -8.1505  -8.1400  -8.1327  -8.0873  -8.0424
    -7.9869  -7.9779  -7.7895  -7.4187  -7.3929  -7.3779  -7.2252  -6.8592
    -6.8219  -6.7286  -6.7098  -6.5875  -6.4817  -6.1009  -6.0447  -6.0025
    -5.9510  -5.9491  -5.9466  -5.8438  -5.8268  -5.7544  -5.6401  -5.6007
    -5.5774  -5.5519  -5.5047  -5.4517  -5.4358  -5.4187  -5.3263  -5.3002
    -5.2334  -5.1803  -5.1481  -5.1330  -5.0926  -5.0716  -4.7856  -4.7465
    -4.7107  -4.6813  -4.5095  -4.4799  -4.4521  -4.4040  -4.3513  -4.3364
    -4.3111  -4.2938  -4.1405  -4.1258  -4.1046  -4.0551  -3.8030  -3.7907
    -3.7864  -3.7585  -3.7096  -3.6855  -3.6647  -3.6340  -3.6307  -3.6195
    -3.5950  -3.5020  -3.4628  -3.4489  -3.4282  -3.4023  -3.3611  -3.3156
    -3.2916  -3.2386  -3.2021  -3.0777  -3.0708  -3.0319  -2.8440  -2.6159
    -0.7235  -0.5946  -0.5654  -0.5560  -0.0654   0.1500   0.1949   0.2248
     0.2373   0.5122   0.5331   0.6495   0.6662   0.6979   0.7120   0.7434
     0.7763   0.8082   0.8795   0.9611   1.0448   1.1550   1.1986   1.2603
     1.4332   1.7259   1.8016   1.8193   1.9253   1.9517   1.9690   1.9936
     2.2579   2.2605   2.2897   2.3409   2.4761   2.5278   2.7432   2.7633
     2.7999   2.8629   2.8757   2.9412   2.9854   3.0355   3.0557   3.0835
     3.1182   3.1416   3.2142   3.2543   3.2955   3.3437   3.5066   3.5693
     3.5962   3.6196   3.6746   3.7511   3.7948   3.8737   3.9431   3.9709
     4.0445   4.0959   4.1291   4.2152   4.2613   4.2772   4.3283   4.3585
     4.3814   4.4215   4.4711   4.5099   4.5414   4.6202   4.6567   4.7002
     4.7219   4.7820

          k =-0.4167-0.2406 0.2308 ( 96042 PWs)   bands (ev):

  -113.9636-113.9603-113.9583-113.9534 -71.4360 -71.4348 -71.4329 -71.4314
   -71.4310 -71.4300 -71.4255 -71.4250 -71.2649 -71.2613 -71.2586 -71.2548
   -22.5478 -19.3550 -18.4631 -18.4202 -18.3598 -18.3497 -17.5419 -17.5369
   -17.5342 -17.5227 -17.1154 -17.1093 -17.1048 -17.0928 -17.0047 -16.9330
   -16.8448 -16.8431 -16.8322 -16.8297 -16.8282 -16.8241 -16.8219 -16.8154
   -16.8088 -16.8066 -16.7863 -16.7733 -16.7027 -16.6975 -15.9636 -15.9594
   -15.8022 -15.6817 -15.6752 -15.6442 -15.5273 -15.4843 -15.2661 -15.2573
   -15.1166 -15.0722 -15.0013 -14.9808 -14.9564 -14.9055 -14.8704 -12.5505
   -12.3829 -12.1407 -12.1331 -11.4086 -10.8355 -10.6970 -10.4503 -10.4324
   -10.1110  -9.2943  -9.2188  -9.0183  -9.0136  -8.5545  -8.5390  -8.5180
    -8.5135  -8.3312  -8.1989  -8.1731  -8.1449  -8.1319  -8.0563  -8.0464
    -7.9449  -7.9368  -7.7788  -7.5092  -7.3414  -7.2933  -7.2785  -6.8866
    -6.8647  -6.7445  -6.7433  -6.5844  -6.4816  -6.1223  -6.1128  -6.0091
    -5.9945  -5.9755  -5.8751  -5.8659  -5.7616  -5.7431  -5.6502  -5.6235
    -5.5784  -5.5657  -5.4752  -5.4639  -5.4582  -5.4403  -5.3172  -5.2812
    -5.2142  -5.1898  -5.1739  -5.0708  -5.0531  -5.0324  -4.7918  -4.7727
    -4.7502  -4.6846  -4.4925  -4.4825  -4.4683  -4.4351  -4.3613  -4.3571
    -4.3190  -4.3047  -4.1112  -4.0848  -4.0659  -4.0622  -3.8109  -3.7927
    -3.7701  -3.7579  -3.7204  -3.6743  -3.6549  -3.6422  -3.6297  -3.6010
    -3.5792  -3.5626  -3.4836  -3.4597  -3.4253  -3.4006  -3.3513  -3.2956
    -3.2521  -3.2124  -3.1957  -3.1343  -2.9866  -2.9651  -2.9545  -2.6155
    -0.6663  -0.6611  -0.6179  -0.5158   0.0558   0.0635   0.2073   0.2698
     0.3336   0.3650   0.5674   0.5954   0.6612   0.6839   0.7027   0.7258
     0.7736   0.8099   0.9508   1.0199   1.0486   1.0776   1.2195   1.2381
     1.5438   1.5688   1.7036   1.8027   1.9449   1.9518   1.9629   2.0396
     2.2599   2.2675   2.2921   2.3840   2.4477   2.5538   2.7272   2.7658
     2.7795   2.8130   2.8479   2.9071   2.9822   3.0013   3.0317   3.0680
     3.1126   3.1749   3.2048   3.3012   3.3622   3.4359   3.5012   3.5863
     3.6072   3.6569   3.7334   3.7581   3.8483   3.9102   3.9408   3.9707
     4.0202   4.0284   4.1010   4.1527   4.2541   4.2785   4.3320   4.3840
     4.4138   4.4436   4.4730   4.4858   4.5326   4.5902   4.6214   4.6842
     4.7397   4.7763

          k = 0.0000-0.4811-0.2308 ( 96042 PWs)   bands (ev):

  -113.9636-113.9603-113.9583-113.9534 -71.4360 -71.4348 -71.4329 -71.4314
   -71.4310 -71.4300 -71.4255 -71.4250 -71.2649 -71.2613 -71.2586 -71.2548
   -22.5478 -19.3550 -18.4635 -18.4191 -18.3625 -18.3476 -17.5415 -17.5393
   -17.5322 -17.5225 -17.1155 -17.1116 -17.1049 -17.0910 -17.0051 -16.9329
   -16.8457 -16.8418 -16.8318 -16.8295 -16.8261 -16.8248 -16.8227 -16.8169
   -16.8088 -16.8058 -16.7882 -16.7715 -16.7050 -16.6950 -15.9660 -15.9585
   -15.8011 -15.6804 -15.6745 -15.6431 -15.5289 -15.4855 -15.2744 -15.2497
   -15.1148 -15.0745 -14.9966 -14.9809 -14.9619 -14.9093 -14.8644 -12.5509
   -12.3832 -12.1423 -12.1307 -11.4088 -10.8361 -10.6979 -10.4508 -10.4300
   -10.1114  -9.2948  -9.2178  -9.0210  -9.0093  -8.5551  -8.5406  -8.5185
    -8.5142  -8.3331  -8.2002  -8.1731  -8.1443  -8.1267  -8.0582  -8.0410
    -7.9475  -7.9331  -7.7889  -7.5052  -7.3367  -7.2982  -7.2783  -6.8879
    -6.8616  -6.7465  -6.7389  -6.5875  -6.4822  -6.1237  -6.1116  -6.0102
    -5.9944  -5.9751  -5.8788  -5.8634  -5.7594  -5.7494  -5.6431  -5.6182
    -5.5793  -5.5655  -5.4762  -5.4680  -5.4589  -5.4381  -5.3235  -5.2867
    -5.2153  -5.1875  -5.1685  -5.0651  -5.0565  -5.0331  -4.7867  -4.7764
    -4.7466  -4.6816  -4.4946  -4.4799  -4.4686  -4.4374  -4.3661  -4.3543
    -4.3236  -4.3029  -4.1170  -4.0826  -4.0713  -4.0564  -3.8125  -3.7943
    -3.7685  -3.7587  -3.7219  -3.6775  -3.6530  -3.6410  -3.6276  -3.6023
    -3.5762  -3.5629  -3.4863  -3.4607  -3.4375  -3.4001  -3.3412  -3.2837
    -3.2528  -3.2080  -3.2026  -3.1349  -2.9859  -2.9652  -2.9512  -2.6157
    -0.6647  -0.6572  -0.6203  -0.5187   0.0554   0.0644   0.2077   0.2699
     0.3339   0.3599   0.5624   0.5925   0.6630   0.6841   0.7063   0.7273
     0.7705   0.8058   0.9519   1.0230   1.0491   1.0769   1.2170   1.2387
     1.5465   1.5666   1.7078   1.8069   1.9412   1.9568   1.9660   2.0365
     2.2578   2.2728   2.2988   2.3753   2.4743   2.5163   2.7317   2.7708
     2.7754   2.8348   2.8416   2.9220   2.9831   3.0073   3.0279   3.0569
     3.1195   3.1840   3.2057   3.2892   3.3714   3.3991   3.4651   3.5772
     3.6184   3.6690   3.6991   3.7531   3.8673   3.8929   3.9282   3.9633
     4.0226   4.0588   4.1200   4.1473   4.2253   4.2704   4.3383   4.3865
     4.4159   4.4454   4.4825   4.5016   4.5465   4.5982   4.6192   4.7032
     4.7285   4.8105

     the Fermi energy is    -1.8970 ev

!    total energy              =   -2934.18585950 Ry
     estimated scf accuracy    <          9.3E-09 Ry
     smearing contrib. (-TS)   =      -0.00000000 Ry
     internal energy E=F+TS    =   -2934.18585950 Ry

     The total energy is F=E-TS. E is the sum of the following terms:
     one-electron contribution =  -16928.24918584 Ry
     hartree contribution      =    8519.28675839 Ry
     xc contribution           =    -580.68537191 Ry
     ewald contribution        =    6055.79732661 Ry
     Dispersion Correction     =      -0.33538675 Ry

     convergence has been achieved in  17 iterations

     Writing all to output data dir ./test.save/ :
     XML data file, charge density, pseudopotentials, collected wavefunctions
 
     init_run     :     17.18s CPU     17.61s WALL (       1 calls)
     electrons    :   1125.19s CPU   1137.93s WALL (       1 calls)

     Called by init_run:
     wfcinit      :     15.91s CPU     16.17s WALL (       1 calls)
     potinit      :      0.06s CPU      0.09s WALL (       1 calls)
     hinit0       :      0.08s CPU      0.10s WALL (       1 calls)

     Called by electrons:
     c_bands      :   1006.30s CPU   1014.04s WALL (      17 calls)
     sum_band     :    112.26s CPU    115.50s WALL (      17 calls)
     v_of_rho     :      0.68s CPU      0.79s WALL (      18 calls)
     newd         :      6.18s CPU      7.87s WALL (      18 calls)
     mix_rho      :      0.11s CPU      0.14s WALL (      17 calls)
     energy_londo :      0.01s CPU      0.01s WALL (       1 calls)

     Called by c_bands:
     init_us_2    :     19.97s CPU     20.09s WALL (    1890 calls)
     cegterg      :    956.24s CPU    963.50s WALL (     918 calls)

     Called by *egterg:
     cdiaghg      :    140.06s CPU    141.53s WALL (    6553 calls)
     h_psi        :    462.42s CPU    465.93s WALL (    6607 calls)
     s_psi        :     92.89s CPU     93.28s WALL (    6607 calls)
     g_psi        :      2.20s CPU      2.22s WALL (    5635 calls)

     Called by h_psi:
     h_psi:calbec :     99.86s CPU    100.40s WALL (    6607 calls)
     vloc_psi     :    263.46s CPU    265.75s WALL (    6607 calls)
     add_vuspsi   :     94.79s CPU     95.37s WALL (    6607 calls)

     General routines
     calbec       :    134.07s CPU    134.77s WALL (    7525 calls)
     fft          :      0.87s CPU      0.95s WALL (     232 calls)
     ffts         :      0.03s CPU      0.04s WALL (      35 calls)
     fftw         :    254.29s CPU    256.38s WALL ( 1414980 calls)
     interpolate  :      0.04s CPU      0.05s WALL (      18 calls)
 
     Parallel routines
 
     PWSCF        :   1150.89s CPU   1169.80s WALL

 
   This run was terminated on:   9:32: 4  19Feb2026            

=------------------------------------------------------------------------------=
   JOB DONE.
=------------------------------------------------------------------------------=
