
     Program BANDS v.7.3.1 starts on 18Feb2026 at 23:16:38 

     This program is part of the open-source Quantum ESPRESSO suite
     for quantum simulation of materials; please cite
         "P. Giannozzi et al., J. Phys.:Condens. Matter 21 395502 (2009);
         "P. Giannozzi et al., J. Phys.:Condens. Matter 29 465901 (2017);
         "P. Giannozzi et al., J. Chem. Phys. 152 154105 (2020);
          URL http://www.quantum-espresso.org", 
     in publications or presentations arising from this work. More details at
     http://www.quantum-espresso.org/quote

     Parallel version (MPI & OpenMP), running on      64 processor cores
     Number of MPI processes:                64
     Threads/MPI process:                     1

     MPI processes distributed on     1 nodes
     R & G space division:  proc/nbgrp/npool/nimage =      64
     931212 MiB available memory on the printing compute node when the environment starts
 

     Reading xml data from directory:

     ./test.save/

     IMPORTANT: XC functional enforced from input :
     Exchange-correlation= PBE
                           (   1   4   3   4   0   0   0)
     Any further DFT definition will be discarded
     Please, verify this is what you really want

 
     Parallelization info
     --------------------
     sticks:   dense  smooth     PW     G-vecs:    dense   smooth      PW
     Min         180      90     23                33956    12002    1631
     Max         181      91     24                33969    12012    1652
     Sum       11557    5773   1531              2173495   768463  105205
 
     Using Slab Decomposition
 

     negative rho (up, down):  3.543E-03 0.000E+00
     Reading collected, re-writing distributed wavefunctions
     high-symmetry point:  0.0000 0.0000 0.0000   x coordinate   0.0000
     high-symmetry point:  0.5000 0.2887 0.0000   x coordinate   0.5774
     high-symmetry point:  0.3333 0.5773 0.0000   x coordinate   0.9107
     high-symmetry point:  0.0000 0.0000 0.0000   x coordinate   1.5773
     high-symmetry point:  0.0000 0.0000 0.2308   x coordinate   1.8081
     high-symmetry point:  0.5000 0.2887 0.2308   x coordinate   2.3854
     high-symmetry point:  0.3333 0.5773 0.2308   x coordinate   2.7187
     high-symmetry point:  0.0000 0.0000 0.2308   x coordinate   3.3853
     high-symmetry point:  0.5000 0.2887 0.2308   x coordinate   3.9627
     high-symmetry point:  0.5000 0.2887 0.0000   x coordinate   4.1935
     high-symmetry point:  0.3333 0.5773 0.0000   x coordinate   4.5268
     high-symmetry point:  0.3333 0.5773 0.2308   x coordinate   4.7577

     Plottable bands (eV) written to file bands.dat.gnu
     Bands written to file bands.dat

 **************************************************************************

                    xk=(   0.00000,   0.00000,   0.00000  )

     point group C_1 (1)    
     there are  1 classes
     the character table:

       E    
A      1.00

     the symmetry operations in each class and the name of the first element:

     E        1
                                                                 

     Band symmetry, C_1 (1)     point group:

     e(  1 -  1) =   -113.70992  eV     1   --> A              
     e(  2 -  2) =   -113.70826  eV     1   --> A              
     e(  3 -  3) =   -113.70679  eV     1   --> A              
     e(  4 -  4) =   -113.70519  eV     1   --> A              
     e(  5 -  5) =    -71.18198  eV     1   --> A              
     e(  6 -  6) =    -71.18132  eV     1   --> A              
     e(  7 -  7) =    -71.18045  eV     1   --> A              
     e(  8 -  8) =    -71.17964  eV     1   --> A              
     e(  9 -  9) =    -71.17896  eV     1   --> A              
     e( 10 - 10) =    -71.17846  eV     1   --> A              
     e( 11 - 11) =    -71.17714  eV     1   --> A              
     e( 12 - 12) =    -71.17664  eV     1   --> A              
     e( 13 - 13) =    -71.01155  eV     1   --> A              
     e( 14 - 14) =    -71.00986  eV     1   --> A              
     e( 15 - 15) =    -71.00794  eV     1   --> A              
     e( 16 - 16) =    -71.00695  eV     1   --> A              
     e( 17 - 17) =    -24.35831  eV     1   --> A              
     e( 18 - 18) =    -22.05500  eV     1   --> A              
     e( 19 - 19) =    -19.10463  eV     1   --> A              
     e( 20 - 20) =    -18.27332  eV     1   --> A              
     e( 21 - 21) =    -18.11062  eV     1   --> A              
     e( 22 - 22) =    -18.10727  eV     1   --> A              
     e( 23 - 23) =    -18.10377  eV     1   --> A              
     e( 24 - 24) =    -17.86870  eV     1   --> A              
     e( 25 - 25) =    -17.29973  eV     1   --> A              
     e( 26 - 26) =    -17.29856  eV     1   --> A              
     e( 27 - 27) =    -17.29700  eV     1   --> A              
     e( 28 - 28) =    -17.25593  eV     1   --> A              
     e( 29 - 29) =    -16.86977  eV     1   --> A              
     e( 30 - 30) =    -16.86859  eV     1   --> A              
     e( 31 - 31) =    -16.82514  eV     1   --> A              
     e( 32 - 32) =    -16.82055  eV     1   --> A              
     e( 33 - 33) =    -16.82030  eV     1   --> A              
     e( 34 - 34) =    -16.61031  eV     1   --> A              
     e( 35 - 35) =    -16.60921  eV     1   --> A              
     e( 36 - 36) =    -16.60857  eV     1   --> A              
     e( 37 - 37) =    -16.57954  eV     1   --> A              
     e( 38 - 38) =    -16.57921  eV     1   --> A              
     e( 39 - 39) =    -16.57830  eV     1   --> A              
     e( 40 - 40) =    -16.57632  eV     1   --> A              
     e( 41 - 41) =    -16.57572  eV     1   --> A              
     e( 42 - 42) =    -16.56487  eV     1   --> A              
     e( 43 - 43) =    -16.56281  eV     1   --> A              
     e( 44 - 44) =    -16.56178  eV     1   --> A              
     e( 45 - 45) =    -16.54762  eV     1   --> A              
     e( 46 - 46) =    -16.46861  eV     1   --> A              
     e( 47 - 47) =    -16.46816  eV     1   --> A              
     e( 48 - 48) =    -16.46516  eV     1   --> A              
     e( 49 - 49) =    -16.03217  eV     1   --> A              
     e( 50 - 50) =    -15.78749  eV     1   --> A              
     e( 51 - 51) =    -15.78621  eV     1   --> A              
     e( 52 - 52) =    -15.78552  eV     1   --> A              
     e( 53 - 53) =    -15.33270  eV     1   --> A              
     e( 54 - 54) =    -15.33034  eV     1   --> A              
     e( 55 - 55) =    -15.32834  eV     1   --> A              
     e( 56 - 56) =    -15.17081  eV     1   --> A              
     e( 57 - 57) =    -15.17016  eV     1   --> A              
     e( 58 - 58) =    -15.05465  eV     1   --> A              
     e( 59 - 59) =    -15.05170  eV     1   --> A              
     e( 60 - 60) =    -15.05133  eV     1   --> A              
     e( 61 - 61) =    -14.95423  eV     1   --> A              
     e( 62 - 62) =    -14.70257  eV     1   --> A              
     e( 63 - 63) =    -14.69868  eV     1   --> A              
     e( 64 - 64) =    -14.69290  eV     1   --> A              
     e( 65 - 65) =    -14.57856  eV     1   --> A              
     e( 66 - 66) =    -14.57577  eV     1   --> A              
     e( 67 - 67) =    -14.49900  eV     1   --> A              
     e( 68 - 68) =    -13.17499  eV     1   --> A              
     e( 69 - 69) =    -12.56612  eV     1   --> A              
     e( 70 - 70) =    -11.91530  eV     1   --> A              
     e( 71 - 71) =    -11.91071  eV     1   --> A              
     e( 72 - 72) =    -11.91004  eV     1   --> A              
     e( 73 - 73) =    -11.50024  eV     1   --> A              
     e( 74 - 74) =    -11.40258  eV     1   --> A              
     e( 75 - 75) =    -10.77479  eV     1   --> A              
     e( 76 - 76) =    -10.64580  eV     1   --> A              
     e( 77 - 77) =    -10.24380  eV     1   --> A              
     e( 78 - 78) =    -10.24113  eV     1   --> A              
     e( 79 - 79) =    -10.23717  eV     1   --> A              
     e( 80 - 80) =     -9.51451  eV     1   --> A              
     e( 81 - 81) =     -9.24255  eV     1   --> A              
     e( 82 - 82) =     -9.14997  eV     1   --> A              
     e( 83 - 83) =     -8.88050  eV     1   --> A              
     e( 84 - 84) =     -8.87912  eV     1   --> A              
     e( 85 - 85) =     -8.87482  eV     1   --> A              
     e( 86 - 86) =     -8.48417  eV     1   --> A              
     e( 87 - 87) =     -8.40625  eV     1   --> A              
     e( 88 - 88) =     -8.17518  eV     1   --> A              
     e( 89 - 89) =     -8.17333  eV     1   --> A              
     e( 90 - 90) =     -8.17214  eV     1   --> A              
     e( 91 - 91) =     -8.10411  eV     1   --> A              
     e( 92 - 92) =     -8.10339  eV     1   --> A              
     e( 93 - 93) =     -8.06176  eV     1   --> A              
     e( 94 - 94) =     -7.86210  eV     1   --> A              
     e( 95 - 95) =     -7.86138  eV     1   --> A              
     e( 96 - 96) =     -7.85824  eV     1   --> A              
     e( 97 - 97) =     -7.83950  eV     1   --> A              
     e( 98 - 98) =     -7.57392  eV     1   --> A              
     e( 99 - 99) =     -7.57084  eV     1   --> A              
     e(100 -100) =     -7.57041  eV     1   --> A              
     e(101 -101) =     -7.51189  eV     1   --> A              
     e(102 -102) =     -7.50328  eV     1   --> A              
     e(103 -103) =     -7.49312  eV     1   --> A              
     e(104 -104) =     -7.01414  eV     1   --> A              
     e(105 -105) =     -6.94193  eV     1   --> A              
     e(106 -106) =     -6.93943  eV     1   --> A              
     e(107 -107) =     -6.93149  eV     1   --> A              
     e(108 -108) =     -6.83851  eV     1   --> A              
     e(109 -109) =     -6.82234  eV     1   --> A              
     e(110 -110) =     -6.81596  eV     1   --> A              
     e(111 -111) =     -6.81462  eV     1   --> A              
     e(112 -112) =     -6.71672  eV     1   --> A              
     e(113 -113) =     -6.47441  eV     1   --> A              
     e(114 -114) =     -6.27517  eV     1   --> A              
     e(115 -115) =     -6.03085  eV     1   --> A              
     e(116 -116) =     -5.99544  eV     1   --> A              
     e(117 -117) =     -5.98930  eV     1   --> A              
     e(118 -118) =     -5.98371  eV     1   --> A              
     e(119 -119) =     -5.71541  eV     1   --> A              
     e(120 -120) =     -5.71282  eV     1   --> A              
     e(121 -121) =     -5.71040  eV     1   --> A              
     e(122 -122) =     -5.65041  eV     1   --> A              
     e(123 -123) =     -5.49344  eV     1   --> A              
     e(124 -124) =     -5.40947  eV     1   --> A              
     e(125 -125) =     -5.40652  eV     1   --> A              
     e(126 -126) =     -5.39197  eV     1   --> A              
     e(127 -127) =     -5.35629  eV     1   --> A              
     e(128 -128) =     -5.30390  eV     1   --> A              
     e(129 -129) =     -5.30302  eV     1   --> A              
     e(130 -130) =     -5.24964  eV     1   --> A              
     e(131 -131) =     -5.18327  eV     1   --> A              
     e(132 -132) =     -5.17910  eV     1   --> A              
     e(133 -133) =     -5.17431  eV     1   --> A              
     e(134 -134) =     -4.98288  eV     1   --> A              
     e(135 -135) =     -4.97696  eV     1   --> A              
     e(136 -136) =     -4.97624  eV     1   --> A              
     e(137 -137) =     -4.92205  eV     1   --> A              
     e(138 -138) =     -4.92027  eV     1   --> A              
     e(139 -139) =     -4.76845  eV     1   --> A              
     e(140 -140) =     -4.69467  eV     1   --> A              
     e(141 -141) =     -4.68786  eV     1   --> A              
     e(142 -142) =     -4.68442  eV     1   --> A              
     e(143 -143) =     -4.65834  eV     1   --> A              
     e(144 -144) =     -4.54522  eV     1   --> A              
     e(145 -145) =     -4.54253  eV     1   --> A              
     e(146 -146) =     -4.54104  eV     1   --> A              
     e(147 -147) =     -4.41814  eV     1   --> A              
     e(148 -148) =     -4.30159  eV     1   --> A              
     e(149 -149) =     -4.29761  eV     1   --> A              
     e(150 -150) =     -4.27855  eV     1   --> A              
     e(151 -151) =     -4.27614  eV     1   --> A              
     e(152 -152) =     -4.27100  eV     1   --> A              
     e(153 -153) =     -4.26070  eV     1   --> A              
     e(154 -154) =     -4.21862  eV     1   --> A              
     e(155 -155) =     -4.21714  eV     1   --> A              
     e(156 -156) =     -4.20790  eV     1   --> A              
     e(157 -157) =     -3.83612  eV     1   --> A              
     e(158 -158) =     -3.83515  eV     1   --> A              
     e(159 -159) =     -3.83378  eV     1   --> A              
     e(160 -160) =     -3.67205  eV     1   --> A              
     e(161 -161) =     -3.67067  eV     1   --> A              
     e(162 -162) =     -3.66839  eV     1   --> A              
     e(163 -163) =     -3.53452  eV     1   --> A              
     e(164 -164) =     -3.48332  eV     1   --> A              
     e(165 -165) =     -3.48138  eV     1   --> A              
     e(166 -166) =     -3.40619  eV     1   --> A              
     e(167 -167) =     -3.38414  eV     1   --> A              
     e(168 -168) =     -3.38348  eV     1   --> A              
     e(169 -169) =     -3.36618  eV     1   --> A              
     e(170 -170) =     -3.32474  eV     1   --> A              
     e(171 -171) =     -3.32266  eV     1   --> A              
     e(172 -172) =     -3.31517  eV     1   --> A              
     e(173 -173) =     -3.26334  eV     1   --> A              
     e(174 -174) =     -3.26041  eV     1   --> A              
     e(175 -175) =     -3.25921  eV     1   --> A              
     e(176 -176) =     -3.12039  eV     1   --> A              
     e(177 -177) =     -3.11564  eV     1   --> A              
     e(178 -178) =     -2.93142  eV     1   --> A              
     e(179 -179) =     -2.92776  eV     1   --> A              
     e(180 -180) =     -2.92450  eV     1   --> A              
     e(181 -181) =     -2.89362  eV     1   --> A              
     e(182 -182) =     -2.76680  eV     1   --> A              
     e(183 -183) =     -2.74014  eV     1   --> A              
     e(184 -184) =     -2.73501  eV     1   --> A              
     e(185 -185) =     -2.73334  eV     1   --> A              
     e(186 -186) =     -2.50589  eV     1   --> A              
     e(187 -187) =     -2.50482  eV     1   --> A              
     e(188 -188) =     -2.45369  eV     1   --> A              
     e(189 -189) =     -0.80317  eV     1   --> A              
     e(190 -190) =     -0.35122  eV     1   --> A              
     e(191 -191) =     -0.34958  eV     1   --> A              
     e(192 -192) =     -0.34631  eV     1   --> A              
     e(193 -193) =      0.18381  eV     1   --> A              
     e(194 -194) =      0.50731  eV     1   --> A              
     e(195 -195) =      0.50897  eV     1   --> A              
     e(196 -196) =      0.51144  eV     1   --> A              
     e(197 -197) =      0.55161  eV     1   --> A              
     e(198 -198) =      0.55374  eV     1   --> A              
     e(199 -199) =      0.56657  eV     1   --> A              
     e(200 -200) =      0.79988  eV     1   --> A              
     e(201 -201) =      0.80391  eV     1   --> A              
     e(202 -202) =      0.81045  eV     1   --> A              
     e(203 -203) =      1.01224  eV     1   --> A              
     e(204 -204) =      1.01492  eV     1   --> A              
     e(205 -205) =      1.01760  eV     1   --> A              
     e(206 -206) =      1.02035  eV     1   --> A              
     e(207 -207) =      1.02497  eV     1   --> A              
     e(208 -208) =      1.30532  eV     1   --> A              
     e(209 -209) =      1.46838  eV     1   --> A              
     e(210 -210) =      1.47484  eV     1   --> A              
     e(211 -211) =      1.48428  eV     1   --> A              
     e(212 -212) =      1.54521  eV     1   --> A              
     e(213 -213) =      1.79848  eV     1   --> A              
     e(214 -214) =      1.80305  eV     1   --> A              
     e(215 -215) =      1.81116  eV     1   --> A              
     e(216 -216) =      1.99918  eV     1   --> A              
     e(217 -217) =      2.16229  eV     1   --> A              
     e(218 -218) =      2.23120  eV     1   --> A              
     e(219 -219) =      2.24884  eV     1   --> A              
     e(220 -220) =      2.27879  eV     1   --> A              
     e(221 -221) =      2.27961  eV     1   --> A              
     e(222 -222) =      2.36632  eV     1   --> A              
     e(223 -223) =      2.37291  eV     1   --> A              
     e(224 -224) =      2.37826  eV     1   --> A              
     e(225 -225) =      2.52113  eV     1   --> A              
     e(226 -226) =      2.61736  eV     1   --> A              
     e(227 -227) =      2.62885  eV     1   --> A              
     e(228 -228) =      2.63813  eV     1   --> A              
     e(229 -229) =      2.82213  eV     1   --> A              
     e(230 -230) =      3.00220  eV     1   --> A              
     e(231 -231) =      3.00619  eV     1   --> A              
     e(232 -232) =      3.03520  eV     1   --> A              
     e(233 -233) =      3.03813  eV     1   --> A              
     e(234 -234) =      3.04139  eV     1   --> A              
     e(235 -235) =      3.15024  eV     1   --> A              
     e(236 -236) =      3.16043  eV     1   --> A              
     e(237 -237) =      3.18499  eV     1   --> A              
     e(238 -238) =      3.23393  eV     1   --> A              
     e(239 -239) =      3.30085  eV     1   --> A              
     e(240 -240) =      3.44523  eV     1   --> A              
     e(241 -241) =      3.45127  eV     1   --> A              
     e(242 -242) =      3.46809  eV     1   --> A              
     e(243 -243) =      3.48363  eV     1   --> A              
     e(244 -244) =      3.68031  eV     1   --> A              
     e(245 -245) =      3.68410  eV     1   --> A              
     e(246 -246) =      3.74773  eV     1   --> A              
     e(247 -247) =      3.82654  eV     1   --> A              
     e(248 -248) =      3.84602  eV     1   --> A              
     e(249 -249) =      3.87469  eV     1   --> A              
     e(250 -250) =      3.94118  eV     1   --> A              
     e(251 -251) =      3.98850  eV     1   --> A              
     e(252 -252) =      4.08200  eV     1   --> A              
     e(253 -253) =      4.08544  eV     1   --> A              
     e(254 -254) =      4.11754  eV     1   --> A              
     e(255 -255) =      4.12742  eV     1   --> A              
     e(256 -256) =      4.16056  eV     1   --> A              
     e(257 -257) =      4.22374  eV     1   --> A              
     e(258 -258) =      4.30912  eV     1   --> A              
     e(259 -259) =      4.32162  eV     1   --> A              
     e(260 -260) =      4.32492  eV     1   --> A              

 **************************************************************************

 **************************************************************************

                    xk=(   0.02500,   0.01443,   0.00000  )

     Band symmetry, C_1 (1)     point group:

     e(  1 -  1) =   -113.70992  eV     1   --> A              
     e(  2 -  2) =   -113.70826  eV     1   --> A              
     e(  3 -  3) =   -113.70679  eV     1   --> A              
     e(  4 -  4) =   -113.70519  eV     1   --> A              
     e(  5 -  5) =    -71.18198  eV     1   --> A              
     e(  6 -  6) =    -71.18132  eV     1   --> A              
     e(  7 -  7) =    -71.18045  eV     1   --> A              
     e(  8 -  8) =    -71.17964  eV     1   --> A              
     e(  9 -  9) =    -71.17896  eV     1   --> A              
     e( 10 - 10) =    -71.17846  eV     1   --> A              
     e( 11 - 11) =    -71.17714  eV     1   --> A              
     e( 12 - 12) =    -71.17664  eV     1   --> A              
     e( 13 - 13) =    -71.01155  eV     1   --> A              
     e( 14 - 14) =    -71.00986  eV     1   --> A              
     e( 15 - 15) =    -71.00794  eV     1   --> A              
     e( 16 - 16) =    -71.00695  eV     1   --> A              
     e( 17 - 17) =    -24.35831  eV     1   --> A              
     e( 18 - 18) =    -22.05500  eV     1   --> A              
     e( 19 - 19) =    -19.10463  eV     1   --> A              
     e( 20 - 20) =    -18.27309  eV     1   --> A              
     e( 21 - 21) =    -18.11077  eV     1   --> A              
     e( 22 - 22) =    -18.10728  eV     1   --> A              
     e( 23 - 23) =    -18.10391  eV     1   --> A              
     e( 24 - 24) =    -17.86870  eV     1   --> A              
     e( 25 - 25) =    -17.29968  eV     1   --> A              
     e( 26 - 26) =    -17.29851  eV     1   --> A              
     e( 27 - 27) =    -17.29695  eV     1   --> A              
     e( 28 - 28) =    -17.25607  eV     1   --> A              
     e( 29 - 29) =    -16.86934  eV     1   --> A              
     e( 30 - 30) =    -16.86849  eV     1   --> A              
     e( 31 - 31) =    -16.82539  eV     1   --> A              
     e( 32 - 32) =    -16.82086  eV     1   --> A              
     e( 33 - 33) =    -16.82048  eV     1   --> A              
     e( 34 - 34) =    -16.61024  eV     1   --> A              
     e( 35 - 35) =    -16.60925  eV     1   --> A              
     e( 36 - 36) =    -16.60854  eV     1   --> A              
     e( 37 - 37) =    -16.57953  eV     1   --> A              
     e( 38 - 38) =    -16.57920  eV     1   --> A              
     e( 39 - 39) =    -16.57830  eV     1   --> A              
     e( 40 - 40) =    -16.57631  eV     1   --> A              
     e( 41 - 41) =    -16.57570  eV     1   --> A              
     e( 42 - 42) =    -16.56490  eV     1   --> A              
     e( 43 - 43) =    -16.56283  eV     1   --> A              
     e( 44 - 44) =    -16.56181  eV     1   --> A              
     e( 45 - 45) =    -16.54761  eV     1   --> A              
     e( 46 - 46) =    -16.46880  eV     1   --> A              
     e( 47 - 47) =    -16.46817  eV     1   --> A              
     e( 48 - 48) =    -16.46518  eV     1   --> A              
     e( 49 - 49) =    -16.03217  eV     1   --> A              
     e( 50 - 50) =    -15.78707  eV     1   --> A              
     e( 51 - 51) =    -15.78560  eV     1   --> A              
     e( 52 - 52) =    -15.78480  eV     1   --> A              
     e( 53 - 53) =    -15.33308  eV     1   --> A              
     e( 54 - 54) =    -15.33060  eV     1   --> A              
     e( 55 - 55) =    -15.32869  eV     1   --> A              
     e( 56 - 56) =    -15.17164  eV     1   --> A              
     e( 57 - 57) =    -15.17058  eV     1   --> A              
     e( 58 - 58) =    -15.05426  eV     1   --> A              
     e( 59 - 59) =    -15.05132  eV     1   --> A              
     e( 60 - 60) =    -15.05071  eV     1   --> A              
     e( 61 - 61) =    -14.95423  eV     1   --> A              
     e( 62 - 62) =    -14.70257  eV     1   --> A              
     e( 63 - 63) =    -14.69883  eV     1   --> A              
     e( 64 - 64) =    -14.69292  eV     1   --> A              
     e( 65 - 65) =    -14.57900  eV     1   --> A              
     e( 66 - 66) =    -14.57625  eV     1   --> A              
     e( 67 - 67) =    -14.49900  eV     1   --> A              
     e( 68 - 68) =    -13.17499  eV     1   --> A              
     e( 69 - 69) =    -12.56494  eV     1   --> A              
     e( 70 - 70) =    -11.91561  eV     1   --> A              
     e( 71 - 71) =    -11.91105  eV     1   --> A              
     e( 72 - 72) =    -11.90999  eV     1   --> A              
     e( 73 - 73) =    -11.50024  eV     1   --> A              
     e( 74 - 74) =    -11.40258  eV     1   --> A              
     e( 75 - 75) =    -10.77405  eV     1   --> A              
     e( 76 - 76) =    -10.64579  eV     1   --> A              
     e( 77 - 77) =    -10.24410  eV     1   --> A              
     e( 78 - 78) =    -10.24081  eV     1   --> A              
     e( 79 - 79) =    -10.23741  eV     1   --> A              
     e( 80 - 80) =     -9.51451  eV     1   --> A              
     e( 81 - 81) =     -9.24255  eV     1   --> A              
     e( 82 - 82) =     -9.14957  eV     1   --> A              
     e( 83 - 83) =     -8.88041  eV     1   --> A              
     e( 84 - 84) =     -8.87882  eV     1   --> A              
     e( 85 - 85) =     -8.87438  eV     1   --> A              
     e( 86 - 86) =     -8.48417  eV     1   --> A              
     e( 87 - 87) =     -8.40625  eV     1   --> A              
     e( 88 - 88) =     -8.17596  eV     1   --> A              
     e( 89 - 89) =     -8.17394  eV     1   --> A              
     e( 90 - 90) =     -8.17285  eV     1   --> A              
     e( 91 - 91) =     -8.10469  eV     1   --> A              
     e( 92 - 92) =     -8.10307  eV     1   --> A              
     e( 93 - 93) =     -8.06178  eV     1   --> A              
     e( 94 - 94) =     -7.86275  eV     1   --> A              
     e( 95 - 95) =     -7.86193  eV     1   --> A              
     e( 96 - 96) =     -7.85895  eV     1   --> A              
     e( 97 - 97) =     -7.83950  eV     1   --> A              
     e( 98 - 98) =     -7.57491  eV     1   --> A              
     e( 99 - 99) =     -7.57178  eV     1   --> A              
     e(100 -100) =     -7.57126  eV     1   --> A              
     e(101 -101) =     -7.51309  eV     1   --> A              
     e(102 -102) =     -7.50229  eV     1   --> A              
     e(103 -103) =     -7.49352  eV     1   --> A              
     e(104 -104) =     -7.01422  eV     1   --> A              
     e(105 -105) =     -6.94370  eV     1   --> A              
     e(106 -106) =     -6.94081  eV     1   --> A              
     e(107 -107) =     -6.93237  eV     1   --> A              
     e(108 -108) =     -6.83592  eV     1   --> A              
     e(109 -109) =     -6.82003  eV     1   --> A              
     e(110 -110) =     -6.81398  eV     1   --> A              
     e(111 -111) =     -6.81150  eV     1   --> A              
     e(112 -112) =     -6.71670  eV     1   --> A              
     e(113 -113) =     -6.47441  eV     1   --> A              
     e(114 -114) =     -6.27517  eV     1   --> A              
     e(115 -115) =     -6.03063  eV     1   --> A              
     e(116 -116) =     -5.99477  eV     1   --> A              
     e(117 -117) =     -5.98850  eV     1   --> A              
     e(118 -118) =     -5.98305  eV     1   --> A              
     e(119 -119) =     -5.71557  eV     1   --> A              
     e(120 -120) =     -5.71256  eV     1   --> A              
     e(121 -121) =     -5.71047  eV     1   --> A              
     e(122 -122) =     -5.64966  eV     1   --> A              
     e(123 -123) =     -5.49344  eV     1   --> A              
     e(124 -124) =     -5.40944  eV     1   --> A              
     e(125 -125) =     -5.40634  eV     1   --> A              
     e(126 -126) =     -5.39207  eV     1   --> A              
     e(127 -127) =     -5.35667  eV     1   --> A              
     e(128 -128) =     -5.30423  eV     1   --> A              
     e(129 -129) =     -5.30253  eV     1   --> A              
     e(130 -130) =     -5.24961  eV     1   --> A              
     e(131 -131) =     -5.18335  eV     1   --> A              
     e(132 -132) =     -5.17915  eV     1   --> A              
     e(133 -133) =     -5.17439  eV     1   --> A              
     e(134 -134) =     -4.98279  eV     1   --> A              
     e(135 -135) =     -4.97705  eV     1   --> A              
     e(136 -136) =     -4.97636  eV     1   --> A              
     e(137 -137) =     -4.92298  eV     1   --> A              
     e(138 -138) =     -4.92103  eV     1   --> A              
     e(139 -139) =     -4.76853  eV     1   --> A              
     e(140 -140) =     -4.69457  eV     1   --> A              
     e(141 -141) =     -4.68810  eV     1   --> A              
     e(142 -142) =     -4.68464  eV     1   --> A              
     e(143 -143) =     -4.65844  eV     1   --> A              
     e(144 -144) =     -4.54594  eV     1   --> A              
     e(145 -145) =     -4.54303  eV     1   --> A              
     e(146 -146) =     -4.54156  eV     1   --> A              
     e(147 -147) =     -4.41815  eV     1   --> A              
     e(148 -148) =     -4.30560  eV     1   --> A              
     e(149 -149) =     -4.30022  eV     1   --> A              
     e(150 -150) =     -4.27667  eV     1   --> A              
     e(151 -151) =     -4.27277  eV     1   --> A              
     e(152 -152) =     -4.27060  eV     1   --> A              
     e(153 -153) =     -4.26011  eV     1   --> A              
     e(154 -154) =     -4.21724  eV     1   --> A              
     e(155 -155) =     -4.21486  eV     1   --> A              
     e(156 -156) =     -4.20658  eV     1   --> A              
     e(157 -157) =     -3.83561  eV     1   --> A              
     e(158 -158) =     -3.83460  eV     1   --> A              
     e(159 -159) =     -3.83325  eV     1   --> A              
     e(160 -160) =     -3.67161  eV     1   --> A              
     e(161 -161) =     -3.67018  eV     1   --> A              
     e(162 -162) =     -3.66796  eV     1   --> A              
     e(163 -163) =     -3.53515  eV     1   --> A              
     e(164 -164) =     -3.48319  eV     1   --> A              
     e(165 -165) =     -3.48094  eV     1   --> A              
     e(166 -166) =     -3.40600  eV     1   --> A              
     e(167 -167) =     -3.38455  eV     1   --> A              
     e(168 -168) =     -3.38338  eV     1   --> A              
     e(169 -169) =     -3.36604  eV     1   --> A              
     e(170 -170) =     -3.32528  eV     1   --> A              
     e(171 -171) =     -3.32267  eV     1   --> A              
     e(172 -172) =     -3.31551  eV     1   --> A              
     e(173 -173) =     -3.26344  eV     1   --> A              
     e(174 -174) =     -3.26054  eV     1   --> A              
     e(175 -175) =     -3.25872  eV     1   --> A              
     e(176 -176) =     -3.12145  eV     1   --> A              
     e(177 -177) =     -3.11822  eV     1   --> A              
     e(178 -178) =     -2.93174  eV     1   --> A              
     e(179 -179) =     -2.92769  eV     1   --> A              
     e(180 -180) =     -2.92495  eV     1   --> A              
     e(181 -181) =     -2.89362  eV     1   --> A              
     e(182 -182) =     -2.76682  eV     1   --> A              
     e(183 -183) =     -2.74100  eV     1   --> A              
     e(184 -184) =     -2.73488  eV     1   --> A              
     e(185 -185) =     -2.73408  eV     1   --> A              
     e(186 -186) =     -2.50869  eV     1   --> A              
     e(187 -187) =     -2.50609  eV     1   --> A              
     e(188 -188) =     -2.45360  eV     1   --> A              
     e(189 -189) =     -0.80007  eV     1   --> A              
     e(190 -190) =     -0.35149  eV     1   --> A              
     e(191 -191) =     -0.34946  eV     1   --> A              
     e(192 -192) =     -0.34588  eV     1   --> A              
     e(193 -193) =      0.18589  eV     1   --> A              
     e(194 -194) =      0.50528  eV     1   --> A              
     e(195 -195) =      0.50918  eV     1   --> A              
     e(196 -196) =      0.51074  eV     1   --> A              
     e(197 -197) =      0.55334  eV     1   --> A              
     e(198 -198) =      0.55540  eV     1   --> A              
     e(199 -199) =      0.56799  eV     1   --> A              
     e(200 -200) =      0.80021  eV     1   --> A              
     e(201 -201) =      0.80379  eV     1   --> A              
     e(202 -202) =      0.81086  eV     1   --> A              
     e(203 -203) =      1.01215  eV     1   --> A              
     e(204 -204) =      1.01432  eV     1   --> A              
     e(205 -205) =      1.01731  eV     1   --> A              
     e(206 -206) =      1.01965  eV     1   --> A              
     e(207 -207) =      1.02459  eV     1   --> A              
     e(208 -208) =      1.30527  eV     1   --> A              
     e(209 -209) =      1.46718  eV     1   --> A              
     e(210 -210) =      1.47470  eV     1   --> A              
     e(211 -211) =      1.48321  eV     1   --> A              
     e(212 -212) =      1.54510  eV     1   --> A              
     e(213 -213) =      1.79859  eV     1   --> A              
     e(214 -214) =      1.80291  eV     1   --> A              
     e(215 -215) =      1.81119  eV     1   --> A              
     e(216 -216) =      1.99919  eV     1   --> A              
     e(217 -217) =      2.16215  eV     1   --> A              
     e(218 -218) =      2.22774  eV     1   --> A              
     e(219 -219) =      2.24961  eV     1   --> A              
     e(220 -220) =      2.27160  eV     1   --> A              
     e(221 -221) =      2.29070  eV     1   --> A              
     e(222 -222) =      2.36434  eV     1   --> A              
     e(223 -223) =      2.37097  eV     1   --> A              
     e(224 -224) =      2.37503  eV     1   --> A              
     e(225 -225) =      2.52178  eV     1   --> A              
     e(226 -226) =      2.61945  eV     1   --> A              
     e(227 -227) =      2.63026  eV     1   --> A              
     e(228 -228) =      2.63998  eV     1   --> A              
     e(229 -229) =      2.82263  eV     1   --> A              
     e(230 -230) =      3.00133  eV     1   --> A              
     e(231 -231) =      3.00667  eV     1   --> A              
     e(232 -232) =      3.03399  eV     1   --> A              
     e(233 -233) =      3.03772  eV     1   --> A              
     e(234 -234) =      3.04130  eV     1   --> A              
     e(235 -235) =      3.14953  eV     1   --> A              
     e(236 -236) =      3.16066  eV     1   --> A              
     e(237 -237) =      3.18489  eV     1   --> A              
     e(238 -238) =      3.23341  eV     1   --> A              
     e(239 -239) =      3.30050  eV     1   --> A              
     e(240 -240) =      3.44671  eV     1   --> A              
     e(241 -241) =      3.45212  eV     1   --> A              
     e(242 -242) =      3.46855  eV     1   --> A              
     e(243 -243) =      3.48438  eV     1   --> A              
     e(244 -244) =      3.67026  eV     1   --> A              
     e(245 -245) =      3.68993  eV     1   --> A              
     e(246 -246) =      3.74756  eV     1   --> A              
     e(247 -247) =      3.82680  eV     1   --> A              
     e(248 -248) =      3.84386  eV     1   --> A              
     e(249 -249) =      3.87478  eV     1   --> A              
     e(250 -250) =      3.94315  eV     1   --> A              
     e(251 -251) =      3.98937  eV     1   --> A              
     e(252 -252) =      4.08112  eV     1   --> A              
     e(253 -253) =      4.08607  eV     1   --> A              
     e(254 -254) =      4.11912  eV     1   --> A              
     e(255 -255) =      4.12858  eV     1   --> A              
     e(256 -256) =      4.15748  eV     1   --> A              
     e(257 -257) =      4.23036  eV     1   --> A              
     e(258 -258) =      4.30655  eV     1   --> A              
     e(259 -259) =      4.31989  eV     1   --> A              
     e(260 -260) =      4.33101  eV     1   --> A              

 **************************************************************************

 **************************************************************************

                    xk=(   0.05000,   0.02887,   0.00000  )

     Band symmetry, C_1 (1)     point group:

     e(  1 -  1) =   -113.70992  eV     1   --> A              
     e(  2 -  2) =   -113.70826  eV     1   --> A              
     e(  3 -  3) =   -113.70679  eV     1   --> A              
     e(  4 -  4) =   -113.70519  eV     1   --> A              
     e(  5 -  5) =    -71.18198  eV     1   --> A              
     e(  6 -  6) =    -71.18132  eV     1   --> A              
     e(  7 -  7) =    -71.18045  eV     1   --> A              
     e(  8 -  8) =    -71.17964  eV     1   --> A              
     e(  9 -  9) =    -71.17896  eV     1   --> A              
     e( 10 - 10) =    -71.17847  eV     1   --> A              
     e( 11 - 11) =    -71.17715  eV     1   --> A              
     e( 12 - 12) =    -71.17664  eV     1   --> A              
     e( 13 - 13) =    -71.01155  eV     1   --> A              
     e( 14 - 14) =    -71.00986  eV     1   --> A              
     e( 15 - 15) =    -71.00794  eV     1   --> A              
     e( 16 - 16) =    -71.00695  eV     1   --> A              
     e( 17 - 17) =    -24.35831  eV     1   --> A              
     e( 18 - 18) =    -22.05500  eV     1   --> A              
     e( 19 - 19) =    -19.10463  eV     1   --> A              
     e( 20 - 20) =    -18.27239  eV     1   --> A              
     e( 21 - 21) =    -18.11124  eV     1   --> A              
     e( 22 - 22) =    -18.10731  eV     1   --> A              
     e( 23 - 23) =    -18.10430  eV     1   --> A              
     e( 24 - 24) =    -17.86870  eV     1   --> A              
     e( 25 - 25) =    -17.29955  eV     1   --> A              
     e( 26 - 26) =    -17.29833  eV     1   --> A              
     e( 27 - 27) =    -17.29677  eV     1   --> A              
     e( 28 - 28) =    -17.25647  eV     1   --> A              
     e( 29 - 29) =    -16.86870  eV     1   --> A              
     e( 30 - 30) =    -16.86760  eV     1   --> A              
     e( 31 - 31) =    -16.82611  eV     1   --> A              
     e( 32 - 32) =    -16.82171  eV     1   --> A              
     e( 33 - 33) =    -16.82101  eV     1   --> A              
     e( 34 - 34) =    -16.61035  eV     1   --> A              
     e( 35 - 35) =    -16.60930  eV     1   --> A              
     e( 36 - 36) =    -16.60825  eV     1   --> A              
     e( 37 - 37) =    -16.57953  eV     1   --> A              
     e( 38 - 38) =    -16.57920  eV     1   --> A              
     e( 39 - 39) =    -16.57829  eV     1   --> A              
     e( 40 - 40) =    -16.57631  eV     1   --> A              
     e( 41 - 41) =    -16.57564  eV     1   --> A              
     e( 42 - 42) =    -16.56497  eV     1   --> A              
     e( 43 - 43) =    -16.56286  eV     1   --> A              
     e( 44 - 44) =    -16.56188  eV     1   --> A              
     e( 45 - 45) =    -16.54756  eV     1   --> A              
     e( 46 - 46) =    -16.46970  eV     1   --> A              
     e( 47 - 47) =    -16.46796  eV     1   --> A              
     e( 48 - 48) =    -16.46512  eV     1   --> A              
     e( 49 - 49) =    -16.03217  eV     1   --> A              
     e( 50 - 50) =    -15.78592  eV     1   --> A              
     e( 51 - 51) =    -15.78432  eV     1   --> A              
     e( 52 - 52) =    -15.78201  eV     1   --> A              
     e( 53 - 53) =    -15.33455  eV     1   --> A              
     e( 54 - 54) =    -15.33161  eV     1   --> A              
     e( 55 - 55) =    -15.32918  eV     1   --> A              
     e( 56 - 56) =    -15.17443  eV     1   --> A              
     e( 57 - 57) =    -15.17151  eV     1   --> A              
     e( 58 - 58) =    -15.05328  eV     1   --> A              
     e( 59 - 59) =    -15.05055  eV     1   --> A              
     e( 60 - 60) =    -15.04833  eV     1   --> A              
     e( 61 - 61) =    -14.95423  eV     1   --> A              
     e( 62 - 62) =    -14.70260  eV     1   --> A              
     e( 63 - 63) =    -14.69926  eV     1   --> A              
     e( 64 - 64) =    -14.69295  eV     1   --> A              
     e( 65 - 65) =    -14.58063  eV     1   --> A              
     e( 66 - 66) =    -14.57740  eV     1   --> A              
     e( 67 - 67) =    -14.49901  eV     1   --> A              
     e( 68 - 68) =    -13.17499  eV     1   --> A              
     e( 69 - 69) =    -12.56142  eV     1   --> A              
     e( 70 - 70) =    -11.91716  eV     1   --> A              
     e( 71 - 71) =    -11.91165  eV     1   --> A              
     e( 72 - 72) =    -11.90960  eV     1   --> A              
     e( 73 - 73) =    -11.50024  eV     1   --> A              
     e( 74 - 74) =    -11.40258  eV     1   --> A              
     e( 75 - 75) =    -10.77183  eV     1   --> A              
     e( 76 - 76) =    -10.64576  eV     1   --> A              
     e( 77 - 77) =    -10.24558  eV     1   --> A              
     e( 78 - 78) =    -10.23989  eV     1   --> A              
     e( 79 - 79) =    -10.23753  eV     1   --> A              
     e( 80 - 80) =     -9.51451  eV     1   --> A              
     e( 81 - 81) =     -9.24254  eV     1   --> A              
     e( 82 - 82) =     -9.14837  eV     1   --> A              
     e( 83 - 83) =     -8.88084  eV     1   --> A              
     e( 84 - 84) =     -8.87742  eV     1   --> A              
     e( 85 - 85) =     -8.87289  eV     1   --> A              
     e( 86 - 86) =     -8.48418  eV     1   --> A              
     e( 87 - 87) =     -8.40625  eV     1   --> A              
     e( 88 - 88) =     -8.17945  eV     1   --> A              
     e( 89 - 89) =     -8.17549  eV     1   --> A              
     e( 90 - 90) =     -8.17402  eV     1   --> A              
     e( 91 - 91) =     -8.10753  eV     1   --> A              
     e( 92 - 92) =     -8.10102  eV     1   --> A              
     e( 93 - 93) =     -8.06182  eV     1   --> A              
     e( 94 - 94) =     -7.86548  eV     1   --> A              
     e( 95 - 95) =     -7.86348  eV     1   --> A              
     e( 96 - 96) =     -7.86032  eV     1   --> A              
     e( 97 - 97) =     -7.83950  eV     1   --> A              
     e( 98 - 98) =     -7.57808  eV     1   --> A              
     e( 99 - 99) =     -7.57471  eV     1   --> A              
     e(100 -100) =     -7.57351  eV     1   --> A              
     e(101 -101) =     -7.51685  eV     1   --> A              
     e(102 -102) =     -7.49936  eV     1   --> A              
     e(103 -103) =     -7.49444  eV     1   --> A              
     e(104 -104) =     -7.01447  eV     1   --> A              
     e(105 -105) =     -6.94958  eV     1   --> A              
     e(106 -106) =     -6.94505  eV     1   --> A              
     e(107 -107) =     -6.93323  eV     1   --> A              
     e(108 -108) =     -6.82825  eV     1   --> A              
     e(109 -109) =     -6.81379  eV     1   --> A              
     e(110 -110) =     -6.80821  eV     1   --> A              
     e(111 -111) =     -6.80254  eV     1   --> A              
     e(112 -112) =     -6.71664  eV     1   --> A              
     e(113 -113) =     -6.47442  eV     1   --> A              
     e(114 -114) =     -6.27517  eV     1   --> A              
     e(115 -115) =     -6.03001  eV     1   --> A              
     e(116 -116) =     -5.99274  eV     1   --> A              
     e(117 -117) =     -5.98612  eV     1   --> A              
     e(118 -118) =     -5.98102  eV     1   --> A              
     e(119 -119) =     -5.71617  eV     1   --> A              
     e(120 -120) =     -5.71180  eV     1   --> A              
     e(121 -121) =     -5.71055  eV     1   --> A              
     e(122 -122) =     -5.64742  eV     1   --> A              
     e(123 -123) =     -5.49343  eV     1   --> A              
     e(124 -124) =     -5.40940  eV     1   --> A              
     e(125 -125) =     -5.40577  eV     1   --> A              
     e(126 -126) =     -5.39235  eV     1   --> A              
     e(127 -127) =     -5.35781  eV     1   --> A              
     e(128 -128) =     -5.30578  eV     1   --> A              
     e(129 -129) =     -5.30055  eV     1   --> A              
     e(130 -130) =     -5.24950  eV     1   --> A              
     e(131 -131) =     -5.18362  eV     1   --> A              
     e(132 -132) =     -5.17931  eV     1   --> A              
     e(133 -133) =     -5.17465  eV     1   --> A              
     e(134 -134) =     -4.98271  eV     1   --> A              
     e(135 -135) =     -4.97770  eV     1   --> A              
     e(136 -136) =     -4.97613  eV     1   --> A              
     e(137 -137) =     -4.92608  eV     1   --> A              
     e(138 -138) =     -4.92298  eV     1   --> A              
     e(139 -139) =     -4.76875  eV     1   --> A              
     e(140 -140) =     -4.69446  eV     1   --> A              
     e(141 -141) =     -4.68897  eV     1   --> A              
     e(142 -142) =     -4.68513  eV     1   --> A              
     e(143 -143) =     -4.65874  eV     1   --> A              
     e(144 -144) =     -4.54799  eV     1   --> A              
     e(145 -145) =     -4.54448  eV     1   --> A              
     e(146 -146) =     -4.54301  eV     1   --> A              
     e(147 -147) =     -4.41817  eV     1   --> A              
     e(148 -148) =     -4.31739  eV     1   --> A              
     e(149 -149) =     -4.29838  eV     1   --> A              
     e(150 -150) =     -4.27792  eV     1   --> A              
     e(151 -151) =     -4.27347  eV     1   --> A              
     e(152 -152) =     -4.26695  eV     1   --> A              
     e(153 -153) =     -4.25171  eV     1   --> A              
     e(154 -154) =     -4.21438  eV     1   --> A              
     e(155 -155) =     -4.20857  eV     1   --> A              
     e(156 -156) =     -4.20222  eV     1   --> A              
     e(157 -157) =     -3.83438  eV     1   --> A              
     e(158 -158) =     -3.83282  eV     1   --> A              
     e(159 -159) =     -3.83161  eV     1   --> A              
     e(160 -160) =     -3.67049  eV     1   --> A              
     e(161 -161) =     -3.66860  eV     1   --> A              
     e(162 -162) =     -3.66647  eV     1   --> A              
     e(163 -163) =     -3.53705  eV     1   --> A              
     e(164 -164) =     -3.48394  eV     1   --> A              
     e(165 -165) =     -3.47848  eV     1   --> A              
     e(166 -166) =     -3.40549  eV     1   --> A              
     e(167 -167) =     -3.38598  eV     1   --> A              
     e(168 -168) =     -3.38298  eV     1   --> A              
     e(169 -169) =     -3.36562  eV     1   --> A              
     e(170 -170) =     -3.32681  eV     1   --> A              
     e(171 -171) =     -3.32294  eV     1   --> A              
     e(172 -172) =     -3.31650  eV     1   --> A              
     e(173 -173) =     -3.26448  eV     1   --> A              
     e(174 -174) =     -3.26033  eV     1   --> A              
     e(175 -175) =     -3.25682  eV     1   --> A              
     e(176 -176) =     -3.12762  eV     1   --> A              
     e(177 -177) =     -3.12288  eV     1   --> A              
     e(178 -178) =     -2.93285  eV     1   --> A              
     e(179 -179) =     -2.92751  eV     1   --> A              
     e(180 -180) =     -2.92615  eV     1   --> A              
     e(181 -181) =     -2.89362  eV     1   --> A              
     e(182 -182) =     -2.76696  eV     1   --> A              
     e(183 -183) =     -2.74468  eV     1   --> A              
     e(184 -184) =     -2.73516  eV     1   --> A              
     e(185 -185) =     -2.73440  eV     1   --> A              
     e(186 -186) =     -2.51795  eV     1   --> A              
     e(187 -187) =     -2.50891  eV     1   --> A              
     e(188 -188) =     -2.45333  eV     1   --> A              
     e(189 -189) =     -0.79089  eV     1   --> A              
     e(190 -190) =     -0.35272  eV     1   --> A              
     e(191 -191) =     -0.34992  eV     1   --> A              
     e(192 -192) =     -0.34339  eV     1   --> A              
     e(193 -193) =      0.19202  eV     1   --> A              
     e(194 -194) =      0.49920  eV     1   --> A              
     e(195 -195) =      0.50425  eV     1   --> A              
     e(196 -196) =      0.51491  eV     1   --> A              
     e(197 -197) =      0.55800  eV     1   --> A              
     e(198 -198) =      0.56031  eV     1   --> A              
     e(199 -199) =      0.57207  eV     1   --> A              
     e(200 -200) =      0.80068  eV     1   --> A              
     e(201 -201) =      0.80344  eV     1   --> A              
     e(202 -202) =      0.81257  eV     1   --> A              
     e(203 -203) =      1.01033  eV     1   --> A              
     e(204 -204) =      1.01332  eV     1   --> A              
     e(205 -205) =      1.01584  eV     1   --> A              
     e(206 -206) =      1.01847  eV     1   --> A              
     e(207 -207) =      1.02402  eV     1   --> A              
     e(208 -208) =      1.30515  eV     1   --> A              
     e(209 -209) =      1.46349  eV     1   --> A              
     e(210 -210) =      1.47411  eV     1   --> A              
     e(211 -211) =      1.48033  eV     1   --> A              
     e(212 -212) =      1.54476  eV     1   --> A              
     e(213 -213) =      1.79850  eV     1   --> A              
     e(214 -214) =      1.80266  eV     1   --> A              
     e(215 -215) =      1.81160  eV     1   --> A              
     e(216 -216) =      1.99923  eV     1   --> A              
     e(217 -217) =      2.16167  eV     1   --> A              
     e(218 -218) =      2.21917  eV     1   --> A              
     e(219 -219) =      2.25173  eV     1   --> A              
     e(220 -220) =      2.26760  eV     1   --> A              
     e(221 -221) =      2.30467  eV     1   --> A              
     e(222 -222) =      2.35836  eV     1   --> A              
     e(223 -223) =      2.36497  eV     1   --> A              
     e(224 -224) =      2.36675  eV     1   --> A              
     e(225 -225) =      2.52367  eV     1   --> A              
     e(226 -226) =      2.62505  eV     1   --> A              
     e(227 -227) =      2.63427  eV     1   --> A              
     e(228 -228) =      2.64529  eV     1   --> A              
     e(229 -229) =      2.82413  eV     1   --> A              
     e(230 -230) =      2.99865  eV     1   --> A              
     e(231 -231) =      3.00823  eV     1   --> A              
     e(232 -232) =      3.02877  eV     1   --> A              
     e(233 -233) =      3.03632  eV     1   --> A              
     e(234 -234) =      3.04268  eV     1   --> A              
     e(235 -235) =      3.14773  eV     1   --> A              
     e(236 -236) =      3.16133  eV     1   --> A              
     e(237 -237) =      3.18477  eV     1   --> A              
     e(238 -238) =      3.23189  eV     1   --> A              
     e(239 -239) =      3.29947  eV     1   --> A              
     e(240 -240) =      3.44982  eV     1   --> A              
     e(241 -241) =      3.45541  eV     1   --> A              
     e(242 -242) =      3.46962  eV     1   --> A              
     e(243 -243) =      3.48703  eV     1   --> A              
     e(244 -244) =      3.65549  eV     1   --> A              
     e(245 -245) =      3.69318  eV     1   --> A              
     e(246 -246) =      3.74688  eV     1   --> A              
     e(247 -247) =      3.82256  eV     1   --> A              
     e(248 -248) =      3.84089  eV     1   --> A              
     e(249 -249) =      3.87669  eV     1   --> A              
     e(250 -250) =      3.94814  eV     1   --> A              
     e(251 -251) =      3.99230  eV     1   --> A              
     e(252 -252) =      4.07634  eV     1   --> A              
     e(253 -253) =      4.08914  eV     1   --> A              
     e(254 -254) =      4.12341  eV     1   --> A              
     e(255 -255) =      4.12926  eV     1   --> A              
     e(256 -256) =      4.15669  eV     1   --> A              
     e(257 -257) =      4.24142  eV     1   --> A              
     e(258 -258) =      4.30298  eV     1   --> A              
     e(259 -259) =      4.31601  eV     1   --> A              
     e(260 -260) =      4.34057  eV     1   --> A              

 **************************************************************************

 **************************************************************************

                    xk=(   0.07500,   0.04330,   0.00000  )

     Band symmetry, C_1 (1)     point group:

     e(  1 -  1) =   -113.70992  eV     1   --> A              
     e(  2 -  2) =   -113.70826  eV     1   --> A              
     e(  3 -  3) =   -113.70679  eV     1   --> A              
     e(  4 -  4) =   -113.70519  eV     1   --> A              
     e(  5 -  5) =    -71.18198  eV     1   --> A              
     e(  6 -  6) =    -71.18132  eV     1   --> A              
     e(  7 -  7) =    -71.18045  eV     1   --> A              
     e(  8 -  8) =    -71.17964  eV     1   --> A              
     e(  9 -  9) =    -71.17896  eV     1   --> A              
     e( 10 - 10) =    -71.17847  eV     1   --> A              
     e( 11 - 11) =    -71.17715  eV     1   --> A              
     e( 12 - 12) =    -71.17664  eV     1   --> A              
     e( 13 - 13) =    -71.01155  eV     1   --> A              
     e( 14 - 14) =    -71.00986  eV     1   --> A              
     e( 15 - 15) =    -71.00794  eV     1   --> A              
     e( 16 - 16) =    -71.00695  eV     1   --> A              
     e( 17 - 17) =    -24.35831  eV     1   --> A              
     e( 18 - 18) =    -22.05500  eV     1   --> A              
     e( 19 - 19) =    -19.10463  eV     1   --> A              
     e( 20 - 20) =    -18.27122  eV     1   --> A              
     e( 21 - 21) =    -18.11212  eV     1   --> A              
     e( 22 - 22) =    -18.10736  eV     1   --> A              
     e( 23 - 23) =    -18.10485  eV     1   --> A              
     e( 24 - 24) =    -17.86870  eV     1   --> A              
     e( 25 - 25) =    -17.29935  eV     1   --> A              
     e( 26 - 26) =    -17.29805  eV     1   --> A              
     e( 27 - 27) =    -17.29649  eV     1   --> A              
     e( 28 - 28) =    -17.25712  eV     1   --> A              
     e( 29 - 29) =    -16.86848  eV     1   --> A              
     e( 30 - 30) =    -16.86528  eV     1   --> A              
     e( 31 - 31) =    -16.82732  eV     1   --> A              
     e( 32 - 32) =    -16.82307  eV     1   --> A              
     e( 33 - 33) =    -16.82186  eV     1   --> A              
     e( 34 - 34) =    -16.61124  eV     1   --> A              
     e( 35 - 35) =    -16.60883  eV     1   --> A              
     e( 36 - 36) =    -16.60763  eV     1   --> A              
     e( 37 - 37) =    -16.57952  eV     1   --> A              
     e( 38 - 38) =    -16.57918  eV     1   --> A              
     e( 39 - 39) =    -16.57826  eV     1   --> A              
     e( 40 - 40) =    -16.57630  eV     1   --> A              
     e( 41 - 41) =    -16.57555  eV     1   --> A              
     e( 42 - 42) =    -16.56510  eV     1   --> A              
     e( 43 - 43) =    -16.56291  eV     1   --> A              
     e( 44 - 44) =    -16.56199  eV     1   --> A              
     e( 45 - 45) =    -16.54746  eV     1   --> A              
     e( 46 - 46) =    -16.47146  eV     1   --> A              
     e( 47 - 47) =    -16.46753  eV     1   --> A              
     e( 48 - 48) =    -16.46484  eV     1   --> A              
     e( 49 - 49) =    -16.03217  eV     1   --> A              
     e( 50 - 50) =    -15.78410  eV     1   --> A              
     e( 51 - 51) =    -15.78237  eV     1   --> A              
     e( 52 - 52) =    -15.77712  eV     1   --> A              
     e( 53 - 53) =    -15.33736  eV     1   --> A              
     e( 54 - 54) =    -15.33399  eV     1   --> A              
     e( 55 - 55) =    -15.32888  eV     1   --> A              
     e( 56 - 56) =    -15.17916  eV     1   --> A              
     e( 57 - 57) =    -15.17295  eV     1   --> A              
     e( 58 - 58) =    -15.05189  eV     1   --> A              
     e( 59 - 59) =    -15.04931  eV     1   --> A              
     e( 60 - 60) =    -15.04415  eV     1   --> A              
     e( 61 - 61) =    -14.95422  eV     1   --> A              
     e( 62 - 62) =    -14.70278  eV     1   --> A              
     e( 63 - 63) =    -14.69996  eV     1   --> A              
     e( 64 - 64) =    -14.69287  eV     1   --> A              
     e( 65 - 65) =    -14.58388  eV     1   --> A              
     e( 66 - 66) =    -14.57873  eV     1   --> A              
     e( 67 - 67) =    -14.49902  eV     1   --> A              
     e( 68 - 68) =    -13.17498  eV     1   --> A              
     e( 69 - 69) =    -12.55558  eV     1   --> A              
     e( 70 - 70) =    -11.92095  eV     1   --> A              
     e( 71 - 71) =    -11.91154  eV     1   --> A              
     e( 72 - 72) =    -11.90889  eV     1   --> A              
     e( 73 - 73) =    -11.50024  eV     1   --> A              
     e( 74 - 74) =    -11.40258  eV     1   --> A              
     e( 75 - 75) =    -10.76814  eV     1   --> A              
     e( 76 - 76) =    -10.64570  eV     1   --> A              
     e( 77 - 77) =    -10.24911  eV     1   --> A              
     e( 78 - 78) =    -10.23840  eV     1   --> A              
     e( 79 - 79) =    -10.23665  eV     1   --> A              
     e( 80 - 80) =     -9.51451  eV     1   --> A              
     e( 81 - 81) =     -9.24252  eV     1   --> A              
     e( 82 - 82) =     -9.14638  eV     1   --> A              
     e( 83 - 83) =     -8.88214  eV     1   --> A              
     e( 84 - 84) =     -8.87474  eV     1   --> A              
     e( 85 - 85) =     -8.87021  eV     1   --> A              
     e( 86 - 86) =     -8.48418  eV     1   --> A              
     e( 87 - 87) =     -8.40626  eV     1   --> A              
     e( 88 - 88) =     -8.18585  eV     1   --> A              
     e( 89 - 89) =     -8.17844  eV     1   --> A              
     e( 90 - 90) =     -8.17482  eV     1   --> A              
     e( 91 - 91) =     -8.11229  eV     1   --> A              
     e( 92 - 92) =     -8.09756  eV     1   --> A              
     e( 93 - 93) =     -8.06187  eV     1   --> A              
     e( 94 - 94) =     -7.87074  eV     1   --> A              
     e( 95 - 95) =     -7.86617  eV     1   --> A              
     e( 96 - 96) =     -7.86147  eV     1   --> A              
     e( 97 - 97) =     -7.83951  eV     1   --> A              
     e( 98 - 98) =     -7.58365  eV     1   --> A              
     e( 99 - 99) =     -7.57978  eV     1   --> A              
     e(100 -100) =     -7.57670  eV     1   --> A              
     e(101 -101) =     -7.52337  eV     1   --> A              
     e(102 -102) =     -7.49586  eV     1   --> A              
     e(103 -103) =     -7.49404  eV     1   --> A              
     e(104 -104) =     -7.01492  eV     1   --> A              
     e(105 -105) =     -6.95843  eV     1   --> A              
     e(106 -106) =     -6.95196  eV     1   --> A              
     e(107 -107) =     -6.93302  eV     1   --> A              
     e(108 -108) =     -6.81587  eV     1   --> A              
     e(109 -109) =     -6.80442  eV     1   --> A              
     e(110 -110) =     -6.79903  eV     1   --> A              
     e(111 -111) =     -6.78926  eV     1   --> A              
     e(112 -112) =     -6.71653  eV     1   --> A              
     e(113 -113) =     -6.47443  eV     1   --> A              
     e(114 -114) =     -6.27517  eV     1   --> A              
     e(115 -115) =     -6.02909  eV     1   --> A              
     e(116 -116) =     -5.98930  eV     1   --> A              
     e(117 -117) =     -5.98223  eV     1   --> A              
     e(118 -118) =     -5.97754  eV     1   --> A              
     e(119 -119) =     -5.71739  eV     1   --> A              
     e(120 -120) =     -5.71111  eV     1   --> A              
     e(121 -121) =     -5.70990  eV     1   --> A              
     e(122 -122) =     -5.64381  eV     1   --> A              
     e(123 -123) =     -5.49340  eV     1   --> A              
     e(124 -124) =     -5.40938  eV     1   --> A              
     e(125 -125) =     -5.40475  eV     1   --> A              
     e(126 -126) =     -5.39273  eV     1   --> A              
     e(127 -127) =     -5.35964  eV     1   --> A              
     e(128 -128) =     -5.30839  eV     1   --> A              
     e(129 -129) =     -5.29729  eV     1   --> A              
     e(130 -130) =     -5.24932  eV     1   --> A              
     e(131 -131) =     -5.18409  eV     1   --> A              
     e(132 -132) =     -5.17960  eV     1   --> A              
     e(133 -133) =     -5.17511  eV     1   --> A              
     e(134 -134) =     -4.98331  eV     1   --> A              
     e(135 -135) =     -4.97833  eV     1   --> A              
     e(136 -136) =     -4.97540  eV     1   --> A              
     e(137 -137) =     -4.93148  eV     1   --> A              
     e(138 -138) =     -4.92580  eV     1   --> A              
     e(139 -139) =     -4.76912  eV     1   --> A              
     e(140 -140) =     -4.69488  eV     1   --> A              
     e(141 -141) =     -4.69071  eV     1   --> A              
     e(142 -142) =     -4.68549  eV     1   --> A              
     e(143 -143) =     -4.65931  eV     1   --> A              
     e(144 -144) =     -4.55108  eV     1   --> A              
     e(145 -145) =     -4.54673  eV     1   --> A              
     e(146 -146) =     -4.54506  eV     1   --> A              
     e(147 -147) =     -4.41821  eV     1   --> A              
     e(148 -148) =     -4.32927  eV     1   --> A              
     e(149 -149) =     -4.29517  eV     1   --> A              
     e(150 -150) =     -4.28089  eV     1   --> A              
     e(151 -151) =     -4.27513  eV     1   --> A              
     e(152 -152) =     -4.26546  eV     1   --> A              
     e(153 -153) =     -4.23730  eV     1   --> A              
     e(154 -154) =     -4.21011  eV     1   --> A              
     e(155 -155) =     -4.20161  eV     1   --> A              
     e(156 -156) =     -4.19392  eV     1   --> A              
     e(157 -157) =     -3.83277  eV     1   --> A              
     e(158 -158) =     -3.82977  eV     1   --> A              
     e(159 -159) =     -3.82888  eV     1   --> A              
     e(160 -160) =     -3.66910  eV     1   --> A              
     e(161 -161) =     -3.66574  eV     1   --> A              
     e(162 -162) =     -3.66361  eV     1   --> A              
     e(163 -163) =     -3.54023  eV     1   --> A              
     e(164 -164) =     -3.48561  eV     1   --> A              
     e(165 -165) =     -3.47405  eV     1   --> A              
     e(166 -166) =     -3.40479  eV     1   --> A              
     e(167 -167) =     -3.38857  eV     1   --> A              
     e(168 -168) =     -3.38226  eV     1   --> A              
     e(169 -169) =     -3.36499  eV     1   --> A              
     e(170 -170) =     -3.32917  eV     1   --> A              
     e(171 -171) =     -3.32392  eV     1   --> A              
     e(172 -172) =     -3.31819  eV     1   --> A              
     e(173 -173) =     -3.26617  eV     1   --> A              
     e(174 -174) =     -3.25902  eV     1   --> A              
     e(175 -175) =     -3.25365  eV     1   --> A              
     e(176 -176) =     -3.14090  eV     1   --> A              
     e(177 -177) =     -3.12718  eV     1   --> A              
     e(178 -178) =     -2.93493  eV     1   --> A              
     e(179 -179) =     -2.92876  eV     1   --> A              
     e(180 -180) =     -2.92642  eV     1   --> A              
     e(181 -181) =     -2.89363  eV     1   --> A              
     e(182 -182) =     -2.76759  eV     1   --> A              
     e(183 -183) =     -2.75189  eV     1   --> A              
     e(184 -184) =     -2.73523  eV     1   --> A              
     e(185 -185) =     -2.73366  eV     1   --> A              
     e(186 -186) =     -2.53308  eV     1   --> A              
     e(187 -187) =     -2.51349  eV     1   --> A              
     e(188 -188) =     -2.45292  eV     1   --> A              
     e(189 -189) =     -0.77599  eV     1   --> A              
     e(190 -190) =     -0.35494  eV     1   --> A              
     e(191 -191) =     -0.35157  eV     1   --> A              
     e(192 -192) =     -0.33836  eV     1   --> A              
     e(193 -193) =      0.20199  eV     1   --> A              
     e(194 -194) =      0.49023  eV     1   --> A              
     e(195 -195) =      0.49691  eV     1   --> A              
     e(196 -196) =      0.52066  eV     1   --> A              
     e(197 -197) =      0.56511  eV     1   --> A              
     e(198 -198) =      0.56831  eV     1   --> A              
     e(199 -199) =      0.57856  eV     1   --> A              
     e(200 -200) =      0.80043  eV     1   --> A              
     e(201 -201) =      0.80268  eV     1   --> A              
     e(202 -202) =      0.81651  eV     1   --> A              
     e(203 -203) =      1.00507  eV     1   --> A              
     e(204 -204) =      1.01012  eV     1   --> A              
     e(205 -205) =      1.01513  eV     1   --> A              
     e(206 -206) =      1.01803  eV     1   --> A              
     e(207 -207) =      1.02411  eV     1   --> A              
     e(208 -208) =      1.30504  eV     1   --> A              
     e(209 -209) =      1.45716  eV     1   --> A              
     e(210 -210) =      1.47169  eV     1   --> A              
     e(211 -211) =      1.47735  eV     1   --> A              
     e(212 -212) =      1.54417  eV     1   --> A              
     e(213 -213) =      1.79752  eV     1   --> A              
     e(214 -214) =      1.80238  eV     1   --> A              
     e(215 -215) =      1.81327  eV     1   --> A              
     e(216 -216) =      1.99928  eV     1   --> A              
     e(217 -217) =      2.16070  eV     1   --> A              
     e(218 -218) =      2.20851  eV     1   --> A              
     e(219 -219) =      2.25496  eV     1   --> A              
     e(220 -220) =      2.26563  eV     1   --> A              
     e(221 -221) =      2.31897  eV     1   --> A              
     e(222 -222) =      2.34779  eV     1   --> A              
     e(223 -223) =      2.35472  eV     1   --> A              
     e(224 -224) =      2.35764  eV     1   --> A              
     e(225 -225) =      2.52668  eV     1   --> A              
     e(226 -226) =      2.63254  eV     1   --> A              
     e(227 -227) =      2.64021  eV     1   --> A              
     e(228 -228) =      2.65344  eV     1   --> A              
     e(229 -229) =      2.82662  eV     1   --> A              
     e(230 -230) =      2.99432  eV     1   --> A              
     e(231 -231) =      3.01066  eV     1   --> A              
     e(232 -232) =      3.01915  eV     1   --> A              
     e(233 -233) =      3.03433  eV     1   --> A              
     e(234 -234) =      3.04559  eV     1   --> A              
     e(235 -235) =      3.14560  eV     1   --> A              
     e(236 -236) =      3.16226  eV     1   --> A              
     e(237 -237) =      3.18523  eV     1   --> A              
     e(238 -238) =      3.22958  eV     1   --> A              
     e(239 -239) =      3.29781  eV     1   --> A              
     e(240 -240) =      3.45229  eV     1   --> A              
     e(241 -241) =      3.46101  eV     1   --> A              
     e(242 -242) =      3.47162  eV     1   --> A              
     e(243 -243) =      3.49219  eV     1   --> A              
     e(244 -244) =      3.63940  eV     1   --> A              
     e(245 -245) =      3.69302  eV     1   --> A              
     e(246 -246) =      3.74514  eV     1   --> A              
     e(247 -247) =      3.80866  eV     1   --> A              
     e(248 -248) =      3.84088  eV     1   --> A              
     e(249 -249) =      3.88210  eV     1   --> A              
     e(250 -250) =      3.95430  eV     1   --> A              
     e(251 -251) =      3.99749  eV     1   --> A              
     e(252 -252) =      4.06805  eV     1   --> A              
     e(253 -253) =      4.09353  eV     1   --> A              
     e(254 -254) =      4.12145  eV     1   --> A              
     e(255 -255) =      4.13656  eV     1   --> A              
     e(256 -256) =      4.16562  eV     1   --> A              
     e(257 -257) =      4.25009  eV     1   --> A              
     e(258 -258) =      4.29895  eV     1   --> A              
     e(259 -259) =      4.31812  eV     1   --> A              
     e(260 -260) =      4.33213  eV     1   --> A              

 **************************************************************************

 **************************************************************************

                    xk=(   0.10000,   0.05774,   0.00000  )

     Band symmetry, C_1 (1)     point group:

     e(  1 -  1) =   -113.70992  eV     1   --> A              
     e(  2 -  2) =   -113.70826  eV     1   --> A              
     e(  3 -  3) =   -113.70679  eV     1   --> A              
     e(  4 -  4) =   -113.70519  eV     1   --> A              
     e(  5 -  5) =    -71.18198  eV     1   --> A              
     e(  6 -  6) =    -71.18132  eV     1   --> A              
     e(  7 -  7) =    -71.18045  eV     1   --> A              
     e(  8 -  8) =    -71.17964  eV     1   --> A              
     e(  9 -  9) =    -71.17896  eV     1   --> A              
     e( 10 - 10) =    -71.17847  eV     1   --> A              
     e( 11 - 11) =    -71.17715  eV     1   --> A              
     e( 12 - 12) =    -71.17664  eV     1   --> A              
     e( 13 - 13) =    -71.01155  eV     1   --> A              
     e( 14 - 14) =    -71.00986  eV     1   --> A              
     e( 15 - 15) =    -71.00794  eV     1   --> A              
     e( 16 - 16) =    -71.00695  eV     1   --> A              
     e( 17 - 17) =    -24.35831  eV     1   --> A              
     e( 18 - 18) =    -22.05500  eV     1   --> A              
     e( 19 - 19) =    -19.10463  eV     1   --> A              
     e( 20 - 20) =    -18.26959  eV     1   --> A              
     e( 21 - 21) =    -18.11352  eV     1   --> A              
     e( 22 - 22) =    -18.10742  eV     1   --> A              
     e( 23 - 23) =    -18.10544  eV     1   --> A              
     e( 24 - 24) =    -17.86870  eV     1   --> A              
     e( 25 - 25) =    -17.29910  eV     1   --> A              
     e( 26 - 26) =    -17.29765  eV     1   --> A              
     e( 27 - 27) =    -17.29608  eV     1   --> A              
     e( 28 - 28) =    -17.25801  eV     1   --> A              
     e( 29 - 29) =    -16.86825  eV     1   --> A              
     e( 30 - 30) =    -16.86194  eV     1   --> A              
     e( 31 - 31) =    -16.82902  eV     1   --> A              
     e( 32 - 32) =    -16.82491  eV     1   --> A              
     e( 33 - 33) =    -16.82299  eV     1   --> A              
     e( 34 - 34) =    -16.61278  eV     1   --> A              
     e( 35 - 35) =    -16.60800  eV     1   --> A              
     e( 36 - 36) =    -16.60677  eV     1   --> A              
     e( 37 - 37) =    -16.57948  eV     1   --> A              
     e( 38 - 38) =    -16.57916  eV     1   --> A              
     e( 39 - 39) =    -16.57822  eV     1   --> A              
     e( 40 - 40) =    -16.57626  eV     1   --> A              
     e( 41 - 41) =    -16.57543  eV     1   --> A              
     e( 42 - 42) =    -16.56529  eV     1   --> A              
     e( 43 - 43) =    -16.56297  eV     1   --> A              
     e( 44 - 44) =    -16.56215  eV     1   --> A              
     e( 45 - 45) =    -16.54731  eV     1   --> A              
     e( 46 - 46) =    -16.47402  eV     1   --> A              
     e( 47 - 47) =    -16.46692  eV     1   --> A              
     e( 48 - 48) =    -16.46433  eV     1   --> A              
     e( 49 - 49) =    -16.03217  eV     1   --> A              
     e( 50 - 50) =    -15.78161  eV     1   --> A              
     e( 51 - 51) =    -15.77969  eV     1   --> A              
     e( 52 - 52) =    -15.77029  eV     1   --> A              
     e( 53 - 53) =    -15.34142  eV     1   --> A              
     e( 54 - 54) =    -15.33754  eV     1   --> A              
     e( 55 - 55) =    -15.32795  eV     1   --> A              
     e( 56 - 56) =    -15.18575  eV     1   --> A              
     e( 57 - 57) =    -15.17492  eV     1   --> A              
     e( 58 - 58) =    -15.05020  eV     1   --> A              
     e( 59 - 59) =    -15.04751  eV     1   --> A              
     e( 60 - 60) =    -15.03826  eV     1   --> A              
     e( 61 - 61) =    -14.95422  eV     1   --> A              
     e( 62 - 62) =    -14.70328  eV     1   --> A              
     e( 63 - 63) =    -14.70092  eV     1   --> A              
     e( 64 - 64) =    -14.69253  eV     1   --> A              
     e( 65 - 65) =    -14.58872  eV     1   --> A              
     e( 66 - 66) =    -14.58023  eV     1   --> A              
     e( 67 - 67) =    -14.49904  eV     1   --> A              
     e( 68 - 68) =    -13.17498  eV     1   --> A              
     e( 69 - 69) =    -12.54749  eV     1   --> A              
     e( 70 - 70) =    -11.92685  eV     1   --> A              
     e( 71 - 71) =    -11.91080  eV     1   --> A              
     e( 72 - 72) =    -11.90790  eV     1   --> A              
     e( 73 - 73) =    -11.50025  eV     1   --> A              
     e( 74 - 74) =    -11.40258  eV     1   --> A              
     e( 75 - 75) =    -10.76301  eV     1   --> A              
     e( 76 - 76) =    -10.64561  eV     1   --> A              
     e( 77 - 77) =    -10.25472  eV     1   --> A              
     e( 78 - 78) =    -10.23637  eV     1   --> A              
     e( 79 - 79) =    -10.23474  eV     1   --> A              
     e( 80 - 80) =     -9.51452  eV     1   --> A              
     e( 81 - 81) =     -9.24249  eV     1   --> A              
     e( 82 - 82) =     -9.14360  eV     1   --> A              
     e( 83 - 83) =     -8.88422  eV     1   --> A              
     e( 84 - 84) =     -8.87096  eV     1   --> A              
     e( 85 - 85) =     -8.86634  eV     1   --> A              
     e( 86 - 86) =     -8.48418  eV     1   --> A              
     e( 87 - 87) =     -8.40627  eV     1   --> A              
     e( 88 - 88) =     -8.19452  eV     1   --> A              
     e( 89 - 89) =     -8.18267  eV     1   --> A              
     e( 90 - 90) =     -8.17575  eV     1   --> A              
     e( 91 - 91) =     -8.11883  eV     1   --> A              
     e( 92 - 92) =     -8.09276  eV     1   --> A              
     e( 93 - 93) =     -8.06189  eV     1   --> A              
     e( 94 - 94) =     -7.87809  eV     1   --> A              
     e( 95 - 95) =     -7.86973  eV     1   --> A              
     e( 96 - 96) =     -7.86265  eV     1   --> A              
     e( 97 - 97) =     -7.83952  eV     1   --> A              
     e( 98 - 98) =     -7.59154  eV     1   --> A              
     e( 99 - 99) =     -7.58701  eV     1   --> A              
     e(100 -100) =     -7.58083  eV     1   --> A              
     e(101 -101) =     -7.53250  eV     1   --> A              
     e(102 -102) =     -7.49648  eV     1   --> A              
     e(103 -103) =     -7.48740  eV     1   --> A              
     e(104 -104) =     -7.01564  eV     1   --> A              
     e(105 -105) =     -6.96856  eV     1   --> A              
     e(106 -106) =     -6.96021  eV     1   --> A              
     e(107 -107) =     -6.93273  eV     1   --> A              
     e(108 -108) =     -6.79936  eV     1   --> A              
     e(109 -109) =     -6.79262  eV     1   --> A              
     e(110 -110) =     -6.78661  eV     1   --> A              
     e(111 -111) =     -6.77341  eV     1   --> A              
     e(112 -112) =     -6.71634  eV     1   --> A              
     e(113 -113) =     -6.47444  eV     1   --> A              
     e(114 -114) =     -6.27517  eV     1   --> A              
     e(115 -115) =     -6.02802  eV     1   --> A              
     e(116 -116) =     -5.98436  eV     1   --> A              
     e(117 -117) =     -5.97698  eV     1   --> A              
     e(118 -118) =     -5.97251  eV     1   --> A              
     e(119 -119) =     -5.71931  eV     1   --> A              
     e(120 -120) =     -5.71098  eV     1   --> A              
     e(121 -121) =     -5.70797  eV     1   --> A              
     e(122 -122) =     -5.63897  eV     1   --> A              
     e(123 -123) =     -5.49334  eV     1   --> A              
     e(124 -124) =     -5.40940  eV     1   --> A              
     e(125 -125) =     -5.40328  eV     1   --> A              
     e(126 -126) =     -5.39307  eV     1   --> A              
     e(127 -127) =     -5.36213  eV     1   --> A              
     e(128 -128) =     -5.31190  eV     1   --> A              
     e(129 -129) =     -5.29299  eV     1   --> A              
     e(130 -130) =     -5.24905  eV     1   --> A              
     e(131 -131) =     -5.18480  eV     1   --> A              
     e(132 -132) =     -5.18006  eV     1   --> A              
     e(133 -133) =     -5.17582  eV     1   --> A              
     e(134 -134) =     -4.98509  eV     1   --> A              
     e(135 -135) =     -4.97842  eV     1   --> A              
     e(136 -136) =     -4.97412  eV     1   --> A              
     e(137 -137) =     -4.93892  eV     1   --> A              
     e(138 -138) =     -4.92941  eV     1   --> A              
     e(139 -139) =     -4.76966  eV     1   --> A              
     e(140 -140) =     -4.69669  eV     1   --> A              
     e(141 -141) =     -4.69320  eV     1   --> A              
     e(142 -142) =     -4.68561  eV     1   --> A              
     e(143 -143) =     -4.66021  eV     1   --> A              
     e(144 -144) =     -4.55478  eV     1   --> A              
[...]
     e(219 -219) =      2.15449  eV     1   --> A              
     e(220 -220) =      2.16429  eV     1   --> A              
     e(221 -221) =      2.18644  eV     1   --> A              
     e(222 -222) =      2.19660  eV     1   --> A              
     e(223 -223) =      2.26875  eV     1   --> A              
     e(224 -224) =      2.50510  eV     1   --> A              
     e(225 -225) =      2.52778  eV     1   --> A              
     e(226 -226) =      2.53287  eV     1   --> A              
     e(227 -227) =      2.54305  eV     1   --> A              
     e(228 -228) =      2.66562  eV     1   --> A              
     e(229 -229) =      2.93927  eV     1   --> A              
     e(230 -230) =      2.96175  eV     1   --> A              
     e(231 -231) =      3.03502  eV     1   --> A              
     e(232 -232) =      3.06459  eV     1   --> A              
     e(233 -233) =      3.07276  eV     1   --> A              
     e(234 -234) =      3.09483  eV     1   --> A              
     e(235 -235) =      3.19914  eV     1   --> A              
     e(236 -236) =      3.23577  eV     1   --> A              
     e(237 -237) =      3.24425  eV     1   --> A              
     e(238 -238) =      3.26872  eV     1   --> A              
     e(239 -239) =      3.32421  eV     1   --> A              
     e(240 -240) =      3.35440  eV     1   --> A              
     e(241 -241) =      3.37998  eV     1   --> A              
     e(242 -242) =      3.40399  eV     1   --> A              
     e(243 -243) =      3.42902  eV     1   --> A              
     e(244 -244) =      3.52224  eV     1   --> A              
     e(245 -245) =      3.55803  eV     1   --> A              
     e(246 -246) =      3.73973  eV     1   --> A              
     e(247 -247) =      3.75237  eV     1   --> A              
     e(248 -248) =      3.75556  eV     1   --> A              
     e(249 -249) =      3.81191  eV     1   --> A              
     e(250 -250) =      3.93281  eV     1   --> A              
     e(251 -251) =      3.95630  eV     1   --> A              
     e(252 -252) =      4.01007  eV     1   --> A              
     e(253 -253) =      4.08981  eV     1   --> A              
     e(254 -254) =      4.16702  eV     1   --> A              
     e(255 -255) =      4.24925  eV     1   --> A              
     e(256 -256) =      4.26631  eV     1   --> A              
     e(257 -257) =      4.27767  eV     1   --> A              
     e(258 -258) =      4.32706  eV     1   --> A              
     e(259 -259) =      4.37604  eV     1   --> A              
     e(260 -260) =      4.40519  eV     1   --> A              

 **************************************************************************

 **************************************************************************

                    xk=(   0.33330,   0.57729,   0.23084  )

     Band symmetry, C_1 (1)     point group:

     e(  1 -  1) =   -113.70992  eV     1   --> A              
     e(  2 -  2) =   -113.70826  eV     1   --> A              
     e(  3 -  3) =   -113.70679  eV     1   --> A              
     e(  4 -  4) =   -113.70519  eV     1   --> A              
     e(  5 -  5) =    -71.18199  eV     1   --> A              
     e(  6 -  6) =    -71.18132  eV     1   --> A              
     e(  7 -  7) =    -71.18045  eV     1   --> A              
     e(  8 -  8) =    -71.17965  eV     1   --> A              
     e(  9 -  9) =    -71.17896  eV     1   --> A              
     e( 10 - 10) =    -71.17847  eV     1   --> A              
     e( 11 - 11) =    -71.17715  eV     1   --> A              
     e( 12 - 12) =    -71.17664  eV     1   --> A              
     e( 13 - 13) =    -71.01155  eV     1   --> A              
     e( 14 - 14) =    -71.00986  eV     1   --> A              
     e( 15 - 15) =    -71.00794  eV     1   --> A              
     e( 16 - 16) =    -71.00695  eV     1   --> A              
     e( 17 - 17) =    -24.35832  eV     1   --> A              
     e( 18 - 18) =    -22.05501  eV     1   --> A              
     e( 19 - 19) =    -19.10463  eV     1   --> A              
     e( 20 - 20) =    -18.17677  eV     1   --> A              
     e( 21 - 21) =    -18.17315  eV     1   --> A              
     e( 22 - 22) =    -18.16988  eV     1   --> A              
     e( 23 - 23) =    -18.08690  eV     1   --> A              
     e( 24 - 24) =    -17.86871  eV     1   --> A              
     e( 25 - 25) =    -17.28975  eV     1   --> A              
     e( 26 - 26) =    -17.28732  eV     1   --> A              
     e( 27 - 27) =    -17.28609  eV     1   --> A              
     e( 28 - 28) =    -17.27984  eV     1   --> A              
     e( 29 - 29) =    -16.87713  eV     1   --> A              
     e( 30 - 30) =    -16.86000  eV     1   --> A              
     e( 31 - 31) =    -16.85802  eV     1   --> A              
     e( 32 - 32) =    -16.85612  eV     1   --> A              
     e( 33 - 33) =    -16.67955  eV     1   --> A              
     e( 34 - 34) =    -16.67921  eV     1   --> A              
     e( 35 - 35) =    -16.67637  eV     1   --> A              
     e( 36 - 36) =    -16.57845  eV     1   --> A              
     e( 37 - 37) =    -16.57807  eV     1   --> A              
     e( 38 - 38) =    -16.57669  eV     1   --> A              
     e( 39 - 39) =    -16.57589  eV     1   --> A              
     e( 40 - 40) =    -16.57513  eV     1   --> A              
     e( 41 - 41) =    -16.57244  eV     1   --> A              
     e( 42 - 42) =    -16.57098  eV     1   --> A              
     e( 43 - 43) =    -16.56901  eV     1   --> A              
     e( 44 - 44) =    -16.56268  eV     1   --> A              
     e( 45 - 45) =    -16.52733  eV     1   --> A              
     e( 46 - 46) =    -16.52627  eV     1   --> A              
     e( 47 - 47) =    -16.52511  eV     1   --> A              
     e( 48 - 48) =    -16.39529  eV     1   --> A              
     e( 49 - 49) =    -16.03220  eV     1   --> A              
     e( 50 - 50) =    -15.74442  eV     1   --> A              
     e( 51 - 51) =    -15.52977  eV     1   --> A              
     e( 52 - 52) =    -15.52801  eV     1   --> A              
     e( 53 - 53) =    -15.52567  eV     1   --> A              
     e( 54 - 54) =    -15.52235  eV     1   --> A              
     e( 55 - 55) =    -15.30893  eV     1   --> A              
     e( 56 - 56) =    -15.30737  eV     1   --> A              
     e( 57 - 57) =    -15.30650  eV     1   --> A              
     e( 58 - 58) =    -15.04235  eV     1   --> A              
     e( 59 - 59) =    -14.95428  eV     1   --> A              
     e( 60 - 60) =    -14.86241  eV     1   --> A              
     e( 61 - 61) =    -14.85946  eV     1   --> A              
     e( 62 - 62) =    -14.85430  eV     1   --> A              
     e( 63 - 63) =    -14.76960  eV     1   --> A              
     e( 64 - 64) =    -14.66208  eV     1   --> A              
     e( 65 - 65) =    -14.65946  eV     1   --> A              
     e( 66 - 66) =    -14.65402  eV     1   --> A              
     e( 67 - 67) =    -14.49928  eV     1   --> A              
     e( 68 - 68) =    -13.17490  eV     1   --> A              
     e( 69 - 69) =    -12.13568  eV     1   --> A              
     e( 70 - 70) =    -12.13192  eV     1   --> A              
     e( 71 - 71) =    -12.13093  eV     1   --> A              
     e( 72 - 72) =    -11.79857  eV     1   --> A              
     e( 73 - 73) =    -11.50026  eV     1   --> A              
     e( 74 - 74) =    -11.40258  eV     1   --> A              
     e( 75 - 75) =    -10.64947  eV     1   --> A              
     e( 76 - 76) =    -10.44337  eV     1   --> A              
     e( 77 - 77) =    -10.43815  eV     1   --> A              
     e( 78 - 78) =    -10.43577  eV     1   --> A              
     e( 79 - 79) =    -10.07625  eV     1   --> A              
     e( 80 - 80) =     -9.51447  eV     1   --> A              
     e( 81 - 81) =     -9.24197  eV     1   --> A              
     e( 82 - 82) =     -8.95707  eV     1   --> A              
     e( 83 - 83) =     -8.95597  eV     1   --> A              
     e( 84 - 84) =     -8.95439  eV     1   --> A              
     e( 85 - 85) =     -8.61399  eV     1   --> A              
     e( 86 - 86) =     -8.48445  eV     1   --> A              
     e( 87 - 87) =     -8.40665  eV     1   --> A              
     e( 88 - 88) =     -8.33865  eV     1   --> A              
     e( 89 - 89) =     -8.33726  eV     1   --> A              
     e( 90 - 90) =     -8.33502  eV     1   --> A              
     e( 91 - 91) =     -8.11819  eV     1   --> A              
     e( 92 - 92) =     -8.09298  eV     1   --> A              
     e( 93 - 93) =     -8.06120  eV     1   --> A              
     e( 94 - 94) =     -7.93990  eV     1   --> A              
     e( 95 - 95) =     -7.85156  eV     1   --> A              
     e( 96 - 96) =     -7.84886  eV     1   --> A              
     e( 97 - 97) =     -7.84533  eV     1   --> A              
     e( 98 - 98) =     -7.83701  eV     1   --> A              
     e( 99 - 99) =     -7.78052  eV     1   --> A              
     e(100 -100) =     -7.77853  eV     1   --> A              
     e(101 -101) =     -7.77561  eV     1   --> A              
     e(102 -102) =     -7.49931  eV     1   --> A              
     e(103 -103) =     -7.22038  eV     1   --> A              
     e(104 -104) =     -7.08011  eV     1   --> A              
     e(105 -105) =     -7.07395  eV     1   --> A              
     e(106 -106) =     -7.06846  eV     1   --> A              
     e(107 -107) =     -7.00228  eV     1   --> A              
     e(108 -108) =     -6.71904  eV     1   --> A              
     e(109 -109) =     -6.59902  eV     1   --> A              
     e(110 -110) =     -6.48775  eV     1   --> A              
     e(111 -111) =     -6.48315  eV     1   --> A              
     e(112 -112) =     -6.48220  eV     1   --> A              
     e(113 -113) =     -6.47291  eV     1   --> A              
     e(114 -114) =     -6.27520  eV     1   --> A              
     e(115 -115) =     -6.02082  eV     1   --> A              
     e(116 -116) =     -5.78360  eV     1   --> A              
     e(117 -117) =     -5.74988  eV     1   --> A              
     e(118 -118) =     -5.74810  eV     1   --> A              
     e(119 -119) =     -5.74508  eV     1   --> A              
     e(120 -120) =     -5.73341  eV     1   --> A              
     e(121 -121) =     -5.63780  eV     1   --> A              
     e(122 -122) =     -5.63454  eV     1   --> A              
     e(123 -123) =     -5.63213  eV     1   --> A              
     e(124 -124) =     -5.48438  eV     1   --> A              
     e(125 -125) =     -5.39768  eV     1   --> A              
     e(126 -126) =     -5.32973  eV     1   --> A              
     e(127 -127) =     -5.32732  eV     1   --> A              
     e(128 -128) =     -5.32165  eV     1   --> A              
     e(129 -129) =     -5.28398  eV     1   --> A              
     e(130 -130) =     -5.24745  eV     1   --> A              
     e(131 -131) =     -5.16556  eV     1   --> A              
     e(132 -132) =     -5.16329  eV     1   --> A              
     e(133 -133) =     -5.16118  eV     1   --> A              
     e(134 -134) =     -5.06316  eV     1   --> A              
     e(135 -135) =     -5.05795  eV     1   --> A              
     e(136 -136) =     -5.05575  eV     1   --> A              
     e(137 -137) =     -4.90083  eV     1   --> A              
     e(138 -138) =     -4.89574  eV     1   --> A              
     e(139 -139) =     -4.89225  eV     1   --> A              
     e(140 -140) =     -4.89069  eV     1   --> A              
     e(141 -141) =     -4.88520  eV     1   --> A              
     e(142 -142) =     -4.76997  eV     1   --> A              
     e(143 -143) =     -4.67027  eV     1   --> A              
     e(144 -144) =     -4.54038  eV     1   --> A              
     e(145 -145) =     -4.45900  eV     1   --> A              
     e(146 -146) =     -4.45516  eV     1   --> A              
     e(147 -147) =     -4.44973  eV     1   --> A              
     e(148 -148) =     -4.41038  eV     1   --> A              
     e(149 -149) =     -4.23977  eV     1   --> A              
     e(150 -150) =     -4.23862  eV     1   --> A              
     e(151 -151) =     -4.23173  eV     1   --> A              
     e(152 -152) =     -4.12997  eV     1   --> A              
     e(153 -153) =     -4.09589  eV     1   --> A              
     e(154 -154) =     -4.06666  eV     1   --> A              
     e(155 -155) =     -4.06533  eV     1   --> A              
     e(156 -156) =     -4.05928  eV     1   --> A              
     e(157 -157) =     -3.87794  eV     1   --> A              
     e(158 -158) =     -3.86992  eV     1   --> A              
     e(159 -159) =     -3.86577  eV     1   --> A              
     e(160 -160) =     -3.86308  eV     1   --> A              
     e(161 -161) =     -3.54823  eV     1   --> A              
     e(162 -162) =     -3.54665  eV     1   --> A              
     e(163 -163) =     -3.54320  eV     1   --> A              
     e(164 -164) =     -3.54188  eV     1   --> A              
     e(165 -165) =     -3.44131  eV     1   --> A              
     e(166 -166) =     -3.43930  eV     1   --> A              
     e(167 -167) =     -3.43810  eV     1   --> A              
     e(168 -168) =     -3.38656  eV     1   --> A              
     e(169 -169) =     -3.36395  eV     1   --> A              
     e(170 -170) =     -3.36282  eV     1   --> A              
     e(171 -171) =     -3.35738  eV     1   --> A              
     e(172 -172) =     -3.33915  eV     1   --> A              
     e(173 -173) =     -3.22123  eV     1   --> A              
     e(174 -174) =     -3.21358  eV     1   --> A              
     e(175 -175) =     -3.17590  eV     1   --> A              
     e(176 -176) =     -3.17373  eV     1   --> A              
     e(177 -177) =     -3.17037  eV     1   --> A              
     e(178 -178) =     -3.07009  eV     1   --> A              
     e(179 -179) =     -3.06783  eV     1   --> A              
     e(180 -180) =     -3.06529  eV     1   --> A              
     e(181 -181) =     -2.93624  eV     1   --> A              
     e(182 -182) =     -2.89412  eV     1   --> A              
     e(183 -183) =     -2.81690  eV     1   --> A              
     e(184 -184) =     -2.81472  eV     1   --> A              
     e(185 -185) =     -2.81083  eV     1   --> A              
     e(186 -186) =     -2.75898  eV     1   --> A              
     e(187 -187) =     -2.55298  eV     1   --> A              
     e(188 -188) =     -2.44824  eV     1   --> A              
     e(189 -189) =     -0.49698  eV     1   --> A              
     e(190 -190) =     -0.32213  eV     1   --> A              
     e(191 -191) =     -0.31762  eV     1   --> A              
     e(192 -192) =     -0.31168  eV     1   --> A              
     e(193 -193) =      0.12898  eV     1   --> A              
     e(194 -194) =      0.39429  eV     1   --> A              
     e(195 -195) =      0.45197  eV     1   --> A              
     e(196 -196) =      0.45536  eV     1   --> A              
     e(197 -197) =      0.46633  eV     1   --> A              
     e(198 -198) =      0.74840  eV     1   --> A              
     e(199 -199) =      0.89485  eV     1   --> A              
     e(200 -200) =      0.90067  eV     1   --> A              
     e(201 -201) =      0.90398  eV     1   --> A              
     e(202 -202) =      0.95012  eV     1   --> A              
     e(203 -203) =      0.97294  eV     1   --> A              
     e(204 -204) =      0.97811  eV     1   --> A              
     e(205 -205) =      0.98719  eV     1   --> A              
     e(206 -206) =      1.06289  eV     1   --> A              
     e(207 -207) =      1.17208  eV     1   --> A              
     e(208 -208) =      1.17564  eV     1   --> A              
     e(209 -209) =      1.18298  eV     1   --> A              
     e(210 -210) =      1.47501  eV     1   --> A              
     e(211 -211) =      1.47863  eV     1   --> A              
     e(212 -212) =      1.48517  eV     1   --> A              
     e(213 -213) =      1.62727  eV     1   --> A              
     e(214 -214) =      1.98494  eV     1   --> A              
     e(215 -215) =      2.12359  eV     1   --> A              
     e(216 -216) =      2.12886  eV     1   --> A              
     e(217 -217) =      2.13656  eV     1   --> A              
     e(218 -218) =      2.15281  eV     1   --> A              
     e(219 -219) =      2.15449  eV     1   --> A              
     e(220 -220) =      2.16429  eV     1   --> A              
     e(221 -221) =      2.18644  eV     1   --> A              
     e(222 -222) =      2.19660  eV     1   --> A              
     e(223 -223) =      2.26875  eV     1   --> A              
     e(224 -224) =      2.50510  eV     1   --> A              
     e(225 -225) =      2.52778  eV     1   --> A              
     e(226 -226) =      2.53287  eV     1   --> A              
     e(227 -227) =      2.54304  eV     1   --> A              
     e(228 -228) =      2.66565  eV     1   --> A              
     e(229 -229) =      2.93939  eV     1   --> A              
     e(230 -230) =      2.96176  eV     1   --> A              
     e(231 -231) =      3.03518  eV     1   --> A              
     e(232 -232) =      3.06454  eV     1   --> A              
     e(233 -233) =      3.07249  eV     1   --> A              
     e(234 -234) =      3.09469  eV     1   --> A              
     e(235 -235) =      3.20001  eV     1   --> A              
     e(236 -236) =      3.23539  eV     1   --> A              
     e(237 -237) =      3.24459  eV     1   --> A              
     e(238 -238) =      3.26774  eV     1   --> A              
     e(239 -239) =      3.32421  eV     1   --> A              
     e(240 -240) =      3.35316  eV     1   --> A              
     e(241 -241) =      3.37859  eV     1   --> A              
     e(242 -242) =      3.40411  eV     1   --> A              
     e(243 -243) =      3.43046  eV     1   --> A              
     e(244 -244) =      3.52381  eV     1   --> A              
     e(245 -245) =      3.55998  eV     1   --> A              
     e(246 -246) =      3.74006  eV     1   --> A              
     e(247 -247) =      3.75241  eV     1   --> A              
     e(248 -248) =      3.75583  eV     1   --> A              
     e(249 -249) =      3.81072  eV     1   --> A              
     e(250 -250) =      3.93137  eV     1   --> A              
     e(251 -251) =      3.95371  eV     1   --> A              
     e(252 -252) =      4.00867  eV     1   --> A              
     e(253 -253) =      4.08975  eV     1   --> A              
     e(254 -254) =      4.16612  eV     1   --> A              
     e(255 -255) =      4.25126  eV     1   --> A              
     e(256 -256) =      4.26911  eV     1   --> A              
     e(257 -257) =      4.27962  eV     1   --> A              
     e(258 -258) =      4.32729  eV     1   --> A              
     e(259 -259) =      4.37643  eV     1   --> A              
     e(260 -260) =      4.40823  eV     1   --> A              

 **************************************************************************
 
     BANDS        :    180.90s CPU    271.67s WALL

 
   This run was terminated on:  23:21:10  18Feb2026            

=------------------------------------------------------------------------------=
   JOB DONE.
=------------------------------------------------------------------------------=
