
     Program PWSCF v.7.3.1 starts on 17Feb2026 at 19:39:58 

     This program is part of the open-source Quantum ESPRESSO suite
     for quantum simulation of materials; please cite
         "P. Giannozzi et al., J. Phys.:Condens. Matter 21 395502 (2009);
         "P. Giannozzi et al., J. Phys.:Condens. Matter 29 465901 (2017);
         "P. Giannozzi et al., J. Chem. Phys. 152 154105 (2020);
          URL http://www.quantum-espresso.org", 
     in publications or presentations arising from this work. More details at
     http://www.quantum-espresso.org/quote

     Parallel version (MPI & OpenMP), running on      64 processor cores
     Number of MPI processes:                64
     Threads/MPI process:                     1

     MPI processes distributed on     1 nodes
     995462 MiB available memory on the printing compute node when the environment starts
 
     Waiting for input...
     Reading input from standard input
Warning: card &IONS ignored
Warning: card / ignored
Warning: card &CELL ignored
Warning: card   PRESS = 0.0, ignored
Warning: card / ignored

     Current dimensions of program PWSCF are:
     Max number of different atomic species (ntypx) = 10
     Max number of k-points (npk) =  40000
     Max angular momentum in pseudopotentials (lmaxx) =  4

     IMPORTANT: XC functional enforced from input :
     Exchange-correlation= PBE
                           (   1   4   3   4   0   0   0)
     Any further DFT definition will be discarded
     Please, verify this is what you really want


     Atomic positions and unit cell read from directory:
     ./test.save/
 
 
     R & G space division:  proc/nbgrp/npool/nimage =      64
     Subspace diagonalization in iterative solution of the eigenvalue problem:
     one sub-group per band group will be used
     ELPA distributed-memory algorithm (size of sub-group:  3*  3 procs)

 
     Parallelization info
     --------------------
     sticks:   dense  smooth     PW     G-vecs:    dense   smooth      PW
     Min         180      90     24                33956    12002    1680
     Max         181      91     25                33969    12012    1689
     Sum       11557    5773   1555              2173495   768463  107785
 
     Using Slab Decomposition
 


     bravais-lattice index     =            4
     lattice parameter (alat)  =      22.8869  a.u.
     unit-cell volume          =   22488.0312 (a.u.)^3
     number of atoms/cell      =           63
     number of atomic types    =            8
     number of electrons       =       376.00
     number of Kohn-Sham states=          260
     kinetic-energy cutoff     =      40.0000  Ry
     charge density cutoff     =     320.0000  Ry
     Exchange-correlation= PBE
                           (   1   4   3   4   0   0   0)

     celldm(1)=  22.886890  celldm(2)=   0.000000  celldm(3)=   2.166010
     celldm(4)=   0.000000  celldm(5)=   0.000000  celldm(6)=   0.000000

     crystal axes: (cart. coord. in units of alat)
               a(1) = (   1.000000   0.000000   0.000000 )  
               a(2) = (  -0.500000   0.866025   0.000000 )  
               a(3) = (   0.000000   0.000000   2.166010 )  

     reciprocal axes: (cart. coord. in units 2 pi/alat)
               b(1) = (  1.000000  0.577350  0.000000 )  
               b(2) = (  0.000000  1.154701  0.000000 )  
               b(3) = (  0.000000  0.000000  0.461678 )  


     PseudoPot. # 1 for Cu read from file:
     ./cu_pbe_v1.2.uspp.F.UPF
     MD5 check sum: 6e991ff952a84172a2a52a1c1e996048
     Pseudo is Ultrasoft + core correction, Zval = 19.0
     Generated by new atomic code, or converted to UPF format
     Using radial grid of  867 points,  6 beta functions with: 
                l(1) =   0
                l(2) =   0
                l(3) =   1
                l(4) =   1
                l(5) =   2
                l(6) =   2
     Q(r) pseudized with  8 coefficients,  rinner =    1.150   1.150   1.150
                                                       1.150   1.150

     PseudoPot. # 2 for In read from file:
     ./in_pbe_v1.4.uspp.F.UPF
     MD5 check sum: 90777abd96fbb83f2e67db2a40c566b9
     Pseudo is Ultrasoft + core correction, Zval = 13.0
     Generated by new atomic code, or converted to UPF format
     Using radial grid of  889 points,  6 beta functions with: 
                l(1) =   0
                l(2) =   0
                l(3) =   1
                l(4) =   1
                l(5) =   2
                l(6) =   2
     Q(r) pseudized with  6 coefficients,  rinner =    1.400   1.400   1.400
                                                       1.400   1.400

     PseudoPot. # 3 for P  read from file:
     ./p_pbe_v1.5.uspp.F.UPF
     MD5 check sum: eb82b2c351da08c5f5f8709277dc7ee5
     Pseudo is Ultrasoft + core correction, Zval =  5.0
     Generated by new atomic code, or converted to UPF format
     Using radial grid of  903 points,  6 beta functions with: 
                l(1) =   0
                l(2) =   0
                l(3) =   1
                l(4) =   1
                l(5) =   2
                l(6) =   2
     Q(r) pseudized with  8 coefficients,  rinner =    1.300   1.300   1.300
                                                       1.300   1.300

     PseudoPot. # 4 for S  read from file:
     ./s_pbe_v1.4.uspp.F.UPF
     MD5 check sum: 88d86576ff6df21479756cfb9bdac1df
     Pseudo is Ultrasoft + core correction, Zval =  6.0
     Generated by new atomic code, or converted to UPF format
     Using radial grid of  907 points,  6 beta functions with: 
                l(1) =   0
                l(2) =   0
                l(3) =   1
                l(4) =   1
                l(5) =   2
                l(6) =   2
     Q(r) pseudized with  8 coefficients,  rinner =    1.300   1.300   1.300
                                                       1.300   1.300

     PseudoPot. # 5 for C  read from file:
     ./c_pbe_v1.2.uspp.F.UPF
     MD5 check sum: d1aef80898a10debaa0f26306b886e00
     Pseudo is Ultrasoft + core correction, Zval =  4.0
     Generated by new atomic code, or converted to UPF format
     Using radial grid of  721 points,  4 beta functions with: 
                l(1) =   0
                l(2) =   0
                l(3) =   1
                l(4) =   1
     Q(r) pseudized with  8 coefficients,  rinner =    1.100   1.100   1.100


     PseudoPot. # 6 for O  read from file:
     ./o_pbe_v1.2.uspp.F.UPF
     MD5 check sum: 734c27235a0248c51dbae37a1fbe46ec
     Pseudo is Ultrasoft + core correction, Zval =  6.0
     Generated by new atomic code, or converted to UPF format
     Using radial grid of  737 points,  5 beta functions with: 
                l(1) =   0
                l(2) =   0
                l(3) =   1
                l(4) =   1
                l(5) =   2
     Q(r) pseudized with  8 coefficients,  rinner =    0.900   0.900   0.900
                                                       0.900   0.900

     PseudoPot. # 7 for N  read from file:
     ./n_pbe_v1.2.uspp.F.UPF
     MD5 check sum: 95339753478d7afb44899504a8723017
     Pseudo is Ultrasoft + core correction, Zval =  5.0
     Generated by new atomic code, or converted to UPF format
     Using radial grid of  729 points,  4 beta functions with: 
                l(1) =   0
                l(2) =   0
                l(3) =   1
                l(4) =   1
     Q(r) pseudized with  8 coefficients,  rinner =    0.900   0.900   0.900


     PseudoPot. # 8 for H  read from file:
     ./h_pbe_v1.4.uspp.F.UPF
     MD5 check sum: 761ae9a214b05c3daf00ab9f6b793d6f
     Pseudo is Ultrasoft, Zval =  1.0
     Generated by new atomic code, or converted to UPF format
     Using radial grid of  615 points,  2 beta functions with: 
                l(1) =   0
                l(2) =   0
     Q(r) pseudized with  8 coefficients,  rinner =    0.700

     atomic species   valence    mass     pseudopotential
     Cu               19.00    63.54600     Cu( 1.00)
     In               13.00   114.81800     In( 1.00)
     P                 5.00    30.97400     P ( 1.00)
     S                 6.00    32.06500     S ( 1.00)
     C                 4.00    12.01100     C ( 1.00)
     O                 6.00    15.99900     O ( 1.00)
     N                 5.00    14.00670     N ( 1.00)
     H                 1.00     1.00780     H ( 1.00)

     No symmetry found



   Cartesian axes

     site n.     atom                  positions (alat units)
         1        Cu     tau(   1) = (   0.2494741   0.1368523   0.9325263  )
         2        Cu     tau(   2) = (  -0.0008165   0.5699097   0.9321289  )
         3        Cu     tau(   3) = (   0.7495071   0.1367736   0.9325836  )
         4        Cu     tau(   4) = (   0.4997216   0.5696681   0.9325622  )
         5        In     tau(   5) = (   0.9996037  -0.0076857   1.0605888  )
         6        In     tau(   6) = (   0.7495150   0.4255413   1.0594874  )
         7        In     tau(   7) = (   0.5001742  -0.0081793   1.0612513  )
         8        In     tau(   8) = (   0.2494782   0.4256523   1.0607957  )
         9        P      tau(   9) = (  -0.0003992   0.2810527   0.9505113  )
        10        P      tau(  10) = (  -0.2504740   0.7142932   0.9505087  )
        11        P      tau(  11) = (   0.4994278   0.2809585   0.9515213  )
        12        P      tau(  12) = (   0.2495199   0.7141401   0.9519169  )
        13        P      tau(  13) = (  -0.0003648   0.2811756   1.1363384  )
        14        P      tau(  14) = (  -0.2504090   0.7134239   1.1363766  )
        15        P      tau(  15) = (   0.4996737   0.2812768   1.1374045  )
        16        P      tau(  16) = (   0.2491231   0.7145264   1.1378653  )
        17        S      tau(  17) = (  -0.0703729   0.1346777   0.8993256  )
        18        S      tau(  18) = (  -0.3202973   0.5681346   0.8984782  )
        19        S      tau(  19) = (   0.4297203   0.1345280   0.9003383  )
        20        S      tau(  20) = (   0.1795557   0.5679288   0.9001987  )
        21        S      tau(  21) = (   0.4111203   0.7266181   0.9001476  )
        22        S      tau(  22) = (   0.6609513   0.2936336   0.8994812  )
        23        S      tau(  23) = (  -0.0888055   0.7271194   0.8992281  )
        24        S      tau(  24) = (   0.1612909   0.2938724   0.8992604  )
        25        S      tau(  25) = (  -0.3423728   0.8480024   0.8994131  )
        26        S      tau(  26) = (  -0.0921102   0.4145996   0.8985757  )
        27        S      tau(  27) = (   0.1578601   0.8476833   0.8999401  )
        28        S      tau(  28) = (   0.4077434   0.4146876   0.8999548  )
        29        S      tau(  29) = (   0.3225783   0.8587260   1.1809808  )
        30        S      tau(  30) = (   0.5723798   0.4258392   1.1803075  )
        31        S      tau(  31) = (  -0.1776825   0.8576521   1.1809443  )
        32        S      tau(  32) = (   0.0717822   0.4257298   1.1802933  )
        33        S      tau(  33) = (   0.0884376   0.1461489   1.1801777  )
        34        S      tau(  34) = (  -0.1608666   0.5785490   1.1788237  )
        35        S      tau(  35) = (   0.5880989   0.1461376   1.1813914  )
        36        S      tau(  36) = (   0.3377986   0.5791507   1.1814360  )
        37        S      tau(  37) = (  -0.4116442   0.7043250   1.1803636  )
        38        S      tau(  38) = (  -0.1618021   0.2719514   1.1799355  )
        39        S      tau(  39) = (   0.0882733   0.7054288   1.1827738  )
        40        S      tau(  40) = (   0.3382139   0.2720266   1.1809500  )
        41        C      tau(  41) = (  -0.0263310   0.5650171   1.6261218  )
        42        C      tau(  42) = (  -0.0262231   0.6255548   1.5152294  )
        43        C      tau(  43) = (  -0.1461503   0.6542067   1.4831601  )
        44        C      tau(  44) = (  -0.2047908   0.7251546   1.5667749  )
        45        C      tau(  45) = (  -0.1944652   0.8404000   1.5635821  )
        46        C      tau(  46) = (  -0.2684073   0.6774418   1.6508941  )
        47        C      tau(  47) = (   0.2537604   0.0404554   1.6425600  )
        48        C      tau(  48) = (  -0.3202393   0.7432956   1.7301128  )
        49        C      tau(  49) = (  -0.3092288   0.8580184   1.7262092  )
        50        O      tau(  50) = (   0.0227943   0.6243280   1.7078413  )
        51        O      tau(  51) = (  -0.0647661   0.4731820   1.6403971  )
        52        N      tau(  52) = (   0.0232226   0.5586161   1.4276397  )
        53        H      tau(  53) = (  -0.1910222   0.5756646   1.4712857  )
        54        H      tau(  54) = (  -0.0139447   0.4821932   1.4263482  )
        55        H      tau(  55) = (  -0.2770996   0.5874538   1.6539503  )
        56        H      tau(  56) = (  -0.3698851   0.7046998   1.7950428  )
        57        H      tau(  57) = (   0.0217453   0.7025080   1.5237797  )
        58        H      tau(  58) = (  -0.1419876   0.6961298   1.4024298  )
        59        H      tau(  59) = (   0.3543256   0.0126146   1.4976463  )
        60        H      tau(  60) = (   0.2622219   0.1303314   1.6385535  )
        61        H      tau(  61) = (   0.1056551   0.5454340   1.4427007  )
        62        H      tau(  62) = (   0.0169631   0.5789702   1.7754711  )
        63        H      tau(  63) = (  -0.3502160   0.9097587   1.7879217  )

     -------------------------------------------------
     Parameters for Dispersion (Grimme-D2) Correction:
     -------------------------------------------------
       atom      VdW radius       C_6     

        Cu         2.952        374.666
        In         3.160       1294.678
        P          3.222        271.980
        S          3.180        193.230
        C          2.744         60.710
        O          2.536         24.284
        N          2.640         42.670
        H          1.892          4.857

     number of k points=    96  Gaussian smearing, width (Ry)=  0.0100
                       cart. coord. in units 2pi/alat
        k(    1) = (   0.0625000   0.1082532  -0.2308392), wk =   0.0208333
        k(    2) = (   0.0625000   0.2525907  -0.2308392), wk =   0.0208333
        k(    3) = (   0.0625000   0.3969283  -0.2308392), wk =   0.0208333
        k(    4) = (   0.0625000   0.5412659  -0.2308392), wk =   0.0208333
        k(    5) = (   0.0625000  -0.4690971  -0.2308392), wk =   0.0208333
        k(    6) = (   0.0625000  -0.3247595  -0.2308392), wk =   0.0208333
        k(    7) = (   0.0625000  -0.1804220  -0.2308392), wk =   0.0208333
        k(    8) = (   0.0625000  -0.0360844  -0.2308392), wk =   0.0208333
        k(    9) = (   0.1875000   0.3247595  -0.2308392), wk =   0.0208333
        k(   10) = (   0.1875000   0.4690971  -0.2308392), wk =   0.0208333
        k(   11) = (   0.1875000   0.6134347  -0.2308392), wk =   0.0208333
        k(   12) = (   0.1875000  -0.3969283  -0.2308392), wk =   0.0208333
        k(   13) = (   0.1875000  -0.2525907  -0.2308392), wk =   0.0208333
        k(   14) = (   0.1875000  -0.1082532  -0.2308392), wk =   0.0208333
        k(   15) = (   0.3125000   0.5412659  -0.2308392), wk =   0.0208333
        k(   16) = (   0.3125000   0.6856034  -0.2308392), wk =   0.0208333
        k(   17) = (   0.3125000  -0.3247595  -0.2308392), wk =   0.0208333
        k(   18) = (   0.3125000  -0.1804220  -0.2308392), wk =   0.0208333
        k(   19) = (   0.4375000   0.7577722  -0.2308392), wk =   0.0208333
        k(   20) = (   0.4375000  -0.2525907  -0.2308392), wk =   0.0208333
        k(   21) = (  -0.0625000   0.1082532   0.2308392), wk =   0.0208333
        k(   22) = (   0.1250000   0.0000000  -0.2308392), wk =   0.0208333
        k(   23) = (  -0.0625000   0.2525907   0.2308392), wk =   0.0208333
        k(   24) = (  -0.1875000   0.1804220  -0.2308392), wk =   0.0208333
        k(   25) = (   0.2500000   0.0721688  -0.2308392), wk =   0.0208333
        k(   26) = (  -0.1875000  -0.1804220   0.2308392), wk =   0.0208333
        k(   27) = (   0.2500000  -0.0721688   0.2308392), wk =   0.0208333
        k(   28) = (  -0.0625000   0.3969283   0.2308392), wk =   0.0208333
        k(   29) = (  -0.3125000   0.2525907  -0.2308392), wk =   0.0208333
        k(   30) = (   0.3750000   0.1443376  -0.2308392), wk =   0.0208333
        k(   31) = (  -0.3125000  -0.2525907   0.2308392), wk =   0.0208333
        k(   32) = (   0.3750000  -0.1443376   0.2308392), wk =   0.0208333
        k(   33) = (  -0.0625000   0.5412659   0.2308392), wk =   0.0208333
        k(   34) = (  -0.4375000   0.3247595  -0.2308392), wk =   0.0208333
        k(   35) = (   0.5000000   0.2165064  -0.2308392), wk =   0.0208333
        k(   36) = (  -0.4375000  -0.3247595   0.2308392), wk =   0.0208333
        k(   37) = (   0.5000000  -0.2165064   0.2308392), wk =   0.0208333
        k(   38) = (  -0.0625000  -0.4690971   0.2308392), wk =   0.0208333
        k(   39) = (   0.4375000  -0.1804220  -0.2308392), wk =   0.0208333
        k(   40) = (  -0.3750000  -0.2886751  -0.2308392), wk =   0.0208333
        k(   41) = (   0.4375000   0.1804220   0.2308392), wk =   0.0208333
        k(   42) = (  -0.3750000   0.2886751   0.2308392), wk =   0.0208333
        k(   43) = (  -0.0625000  -0.3247595   0.2308392), wk =   0.0208333
        k(   44) = (   0.3125000  -0.1082532  -0.2308392), wk =   0.0208333
        k(   45) = (  -0.2500000  -0.2165064  -0.2308392), wk =   0.0208333
        k(   46) = (   0.3125000   0.1082532   0.2308392), wk =   0.0208333
        k(   47) = (  -0.2500000   0.2165064   0.2308392), wk =   0.0208333
        k(   48) = (  -0.0625000  -0.1804220   0.2308392), wk =   0.0208333
        k(   49) = (   0.1875000  -0.0360844  -0.2308392), wk =   0.0208333
        k(   50) = (  -0.1250000  -0.1443376  -0.2308392), wk =   0.0208333
        k(   51) = (   0.1875000   0.0360844   0.2308392), wk =   0.0208333
        k(   52) = (  -0.1250000   0.1443376   0.2308392), wk =   0.0208333
        k(   53) = (  -0.0625000  -0.0360844   0.2308392), wk =   0.0208333
        k(   54) = (   0.0000000  -0.0721688  -0.2308392), wk =   0.0208333
        k(   55) = (  -0.1875000   0.3247595   0.2308392), wk =   0.0208333
        k(   56) = (   0.3750000   0.0000000  -0.2308392), wk =   0.0208333
        k(   57) = (  -0.1875000   0.4690971   0.2308392), wk =   0.0208333
        k(   58) = (  -0.3125000   0.3969283  -0.2308392), wk =   0.0208333
        k(   59) = (   0.5000000   0.0721688  -0.2308392), wk =   0.0208333
        k(   60) = (  -0.3125000  -0.3969283   0.2308392), wk =   0.0208333
        k(   61) = (   0.5000000  -0.0721688   0.2308392), wk =   0.0208333
        k(   62) = (  -0.1875000   0.6134347   0.2308392), wk =   0.0208333
        k(   63) = (  -0.4375000   0.4690971  -0.2308392), wk =   0.0208333
        k(   64) = (   0.6250000   0.1443376  -0.2308392), wk =   0.0208333
        k(   65) = (  -0.4375000  -0.4690971   0.2308392), wk =   0.0208333
        k(   66) = (   0.6250000  -0.1443376   0.2308392), wk =   0.0208333
        k(   67) = (  -0.1875000  -0.3969283   0.2308392), wk =   0.0208333
        k(   68) = (   0.4375000  -0.0360844  -0.2308392), wk =   0.0208333
        k(   69) = (  -0.2500000  -0.3608439  -0.2308392), wk =   0.0208333
        k(   70) = (   0.4375000   0.0360844   0.2308392), wk =   0.0208333
        k(   71) = (  -0.2500000   0.3608439   0.2308392), wk =   0.0208333
        k(   72) = (  -0.1875000  -0.2525907   0.2308392), wk =   0.0208333
        k(   73) = (   0.3125000   0.0360844  -0.2308392), wk =   0.0208333
        k(   74) = (  -0.1250000  -0.2886751  -0.2308392), wk =   0.0208333
        k(   75) = (   0.3125000  -0.0360844   0.2308392), wk =   0.0208333
        k(   76) = (  -0.1250000   0.2886751   0.2308392), wk =   0.0208333
        k(   77) = (  -0.1875000  -0.1082532   0.2308392), wk =   0.0208333
        k(   78) = (   0.0000000  -0.2165064  -0.2308392), wk =   0.0208333
        k(   79) = (  -0.3125000   0.5412659   0.2308392), wk =   0.0208333
        k(   80) = (   0.6250000   0.0000000  -0.2308392), wk =   0.0208333
        k(   81) = (  -0.3125000   0.6856034   0.2308392), wk =   0.0208333
        k(   82) = (  -0.4375000   0.6134347  -0.2308392), wk =   0.0208333
        k(   83) = (   0.7500000   0.0721688  -0.2308392), wk =   0.0208333
        k(   84) = (  -0.4375000  -0.6134347   0.2308392), wk =   0.0208333
        k(   85) = (   0.7500000  -0.0721688   0.2308392), wk =   0.0208333
        k(   86) = (  -0.3125000  -0.3247595   0.2308392), wk =   0.0208333
        k(   87) = (   0.4375000   0.1082532  -0.2308392), wk =   0.0208333
        k(   88) = (  -0.1250000  -0.4330127  -0.2308392), wk =   0.0208333
        k(   89) = (   0.4375000  -0.1082532   0.2308392), wk =   0.0208333
        k(   90) = (  -0.1250000   0.4330127   0.2308392), wk =   0.0208333
        k(   91) = (  -0.3125000  -0.1804220   0.2308392), wk =   0.0208333
        k(   92) = (   0.0000000  -0.3608439  -0.2308392), wk =   0.0208333
        k(   93) = (  -0.4375000   0.7577722   0.2308392), wk =   0.0208333
        k(   94) = (   0.8750000   0.0000000  -0.2308392), wk =   0.0208333
        k(   95) = (  -0.4375000  -0.2525907   0.2308392), wk =   0.0208333
        k(   96) = (   0.0000000  -0.5051815  -0.2308392), wk =   0.0208333

     Dense  grid:  2173495 G-vectors     FFT dimensions: ( 135, 135, 288)

     Smooth grid:   768463 G-vectors     FFT dimensions: (  96,  96, 200)

     Estimated max dynamical RAM per process >     163.66 MB

     Estimated total dynamical RAM >      10.23 GB

     The potential is recalculated from file :
     ./test.save/charge-density


     negative rho (up, down):  3.543E-03 0.000E+00
     Starting wfcs are  275 randomized atomic wfcs

     Band Structure Calculation
     CG style diagonalization
     c_bands: 10 eigenvalues not converged
     c_bands: 10 eigenvalues not converged
     c_bands: 10 eigenvalues not converged
     c_bands:  8 eigenvalues not converged
     c_bands:  8 eigenvalues not converged
     c_bands: 10 eigenvalues not converged
     c_bands: 11 eigenvalues not converged
     c_bands: 11 eigenvalues not converged
     c_bands: 11 eigenvalues not converged
     c_bands:  9 eigenvalues not converged
     c_bands:  8 eigenvalues not converged
     c_bands: 10 eigenvalues not converged
     c_bands: 12 eigenvalues not converged
     c_bands: 10 eigenvalues not converged
     c_bands:  7 eigenvalues not converged
     c_bands:  8 eigenvalues not converged
     c_bands:  9 eigenvalues not converged
     c_bands:  8 eigenvalues not converged
     c_bands:  9 eigenvalues not converged
     c_bands:  9 eigenvalues not converged
     c_bands: 11 eigenvalues not converged
     c_bands: 11 eigenvalues not converged
     c_bands: 10 eigenvalues not converged
     c_bands: 10 eigenvalues not converged
     c_bands: 10 eigenvalues not converged
     c_bands: 12 eigenvalues not converged
     c_bands:  9 eigenvalues not converged
     c_bands: 11 eigenvalues not converged
     c_bands: 10 eigenvalues not converged
     c_bands:  8 eigenvalues not converged
     c_bands: 10 eigenvalues not converged
     c_bands:  9 eigenvalues not converged
     c_bands:  8 eigenvalues not converged
     c_bands:  7 eigenvalues not converged
     c_bands:  7 eigenvalues not converged
     c_bands:  9 eigenvalues not converged
     c_bands:  8 eigenvalues not converged
     c_bands: 10 eigenvalues not converged
     c_bands:  8 eigenvalues not converged
     c_bands:  8 eigenvalues not converged
     c_bands:  8 eigenvalues not converged
     c_bands:  9 eigenvalues not converged
     c_bands: 11 eigenvalues not converged
     c_bands: 11 eigenvalues not converged
     c_bands:  9 eigenvalues not converged
     c_bands: 10 eigenvalues not converged
     c_bands: 10 eigenvalues not converged
     c_bands: 10 eigenvalues not converged
     c_bands: 12 eigenvalues not converged
     c_bands: 10 eigenvalues not converged
     c_bands: 11 eigenvalues not converged
     c_bands: 11 eigenvalues not converged
     c_bands: 10 eigenvalues not converged
     c_bands: 10 eigenvalues not converged
     c_bands: 10 eigenvalues not converged
     c_bands: 11 eigenvalues not converged
     c_bands:  8 eigenvalues not converged
     c_bands: 10 eigenvalues not converged
     c_bands:  9 eigenvalues not converged
     c_bands:  9 eigenvalues not converged
     c_bands:  9 eigenvalues not converged
     c_bands:  8 eigenvalues not converged
     c_bands:  9 eigenvalues not converged
     c_bands:  9 eigenvalues not converged
     c_bands:  7 eigenvalues not converged
     c_bands:  8 eigenvalues not converged
     c_bands:  9 eigenvalues not converged
     c_bands:  7 eigenvalues not converged
     c_bands:  8 eigenvalues not converged
     c_bands:  8 eigenvalues not converged
     c_bands:  9 eigenvalues not converged
     c_bands: 10 eigenvalues not converged
     c_bands: 10 eigenvalues not converged
     c_bands: 10 eigenvalues not converged
     c_bands: 10 eigenvalues not converged
     c_bands: 11 eigenvalues not converged
     c_bands: 11 eigenvalues not converged
     c_bands: 11 eigenvalues not converged
     c_bands:  8 eigenvalues not converged
     c_bands:  6 eigenvalues not converged
     c_bands:  8 eigenvalues not converged
     c_bands:  9 eigenvalues not converged
     c_bands:  8 eigenvalues not converged
     c_bands:  9 eigenvalues not converged
     c_bands:  9 eigenvalues not converged
     c_bands:  7 eigenvalues not converged
     c_bands:  9 eigenvalues not converged
     c_bands:  9 eigenvalues not converged
     c_bands:  8 eigenvalues not converged
     c_bands: 10 eigenvalues not converged
     c_bands: 10 eigenvalues not converged
     c_bands:  9 eigenvalues not converged
     c_bands:  8 eigenvalues not converged
     c_bands:  8 eigenvalues not converged
     c_bands:  8 eigenvalues not converged
     c_bands:  8 eigenvalues not converged

     ethr =  2.66E-12,  avg # of iterations = 79.1

     total cpu time spent up to now is    30258.2 secs

     End of band structure calculation

          k = 0.0625 0.1083-0.2308 ( 96006 PWs)   bands (ev):

  -113.7099-113.7083-113.7068-113.7052 -71.1820 -71.1813 -71.1805 -71.1796
   -71.1790 -71.1785 -71.1771 -71.1766 -71.0116 -71.0099 -71.0079 -71.0069
   -24.3583 -22.0550 -19.1046 -18.2690 -18.1139 -18.1082 -18.1051 -17.8687
   -17.2990 -17.2973 -17.2961 -17.2583 -16.8681 -16.8607 -16.8297 -16.8254
   -16.8236 -16.6121 -16.6106 -16.6048 -16.5795 -16.5792 -16.5783 -16.5763
   -16.5753 -16.5654 -16.5629 -16.5623 -16.5473 -16.4725 -16.4715 -16.4618
   -16.0322 -15.7837 -15.7723 -15.7710 -15.3451 -15.3341 -15.3302 -15.1880
   -15.1761 -15.0516 -15.0413 -15.0394 -14.9542 -14.7046 -14.7005 -14.6920
   -14.5918 -14.5796 -14.4991 -13.1750 -12.5443 -11.9242 -11.9203 -11.9027
   -11.5002 -11.4026 -10.7610 -10.6456 -10.2522 -10.2471 -10.2272  -9.5145
    -9.2425  -9.1425  -8.8810  -8.8784  -8.8599  -8.4842  -8.4063  -8.1968
    -8.1885  -8.1725  -8.1213  -8.0914  -8.0617  -7.8821  -7.8715  -7.8615
    -7.8395  -7.5941  -7.5883  -7.5844  -7.5350  -7.4982  -7.4843  -7.0166
    -6.9801  -6.9509  -6.9360  -6.7934  -6.7916  -6.7765  -6.7697  -6.7163
    -6.4745  -6.2752  -6.0278  -5.9820  -5.9743  -5.9715  -5.7188  -5.7130
    -5.7065  -5.6371  -5.4935  -5.4103  -5.4027  -5.3920  -5.3631  -5.3135
    -5.2909  -5.2494  -5.1851  -5.1796  -5.1764  -4.9854  -4.9796  -4.9730
    -4.9404  -4.9321  -4.7700  -4.6995  -4.6924  -4.6859  -4.6605  -4.5560
    -4.5512  -4.5474  -4.4182  -4.3453  -4.2900  -4.2836  -4.2765  -4.2602
    -4.2173  -4.2052  -4.1886  -4.1809  -3.8294  -3.8264  -3.8228  -3.6655
    -3.6620  -3.6566  -3.5467  -3.4880  -3.4663  -3.4027  -3.3910  -3.3861
    -3.3624  -3.3349  -3.3294  -3.3176  -3.2703  -3.2560  -3.2449  -3.1659
    -3.1351  -2.9409  -2.9294  -2.9268  -2.8937  -2.7723  -2.7577  -2.7499
    -2.7220  -2.5619  -2.5216  -2.4522  -0.7484  -0.3657  -0.3409  -0.3365
     0.2205   0.4663   0.5043   0.5155   0.5740   0.5858   0.5938   0.7905
     0.8135   0.8213   0.9913   1.0092   1.0129   1.0184   1.0242   1.3050
     1.4436   1.4624   1.4777   1.5430   1.7925   1.8054   1.8176   1.9988
     2.1562   2.1984   2.2514   2.2740   2.3217   2.3297   2.3452   2.3520
     2.5141   2.6415   2.6534   2.6653   2.9075   2.9868   3.0000   3.0097
     3.0243   3.0548   3.0768   3.1472   3.1820   3.2022   3.2925   3.4497
     3.4733   3.4945   3.5457   3.6535   3.6878   3.7598   3.7951   3.8279
     3.8912   3.9500   3.9940   4.0371   4.0678   4.1597   4.1768   4.2008
     4.2286   4.2419   4.2793   4.3273

          k = 0.0625 0.2526-0.2308 ( 96096 PWs)   bands (ev):

  -113.7099-113.7083-113.7068-113.7052 -71.1820 -71.1813 -71.1805 -71.1796
   -71.1790 -71.1785 -71.1771 -71.1766 -71.0116 -71.0099 -71.0079 -71.0069
   -24.3583 -22.0550 -19.1046 -18.2549 -18.1278 -18.1137 -18.1030 -17.8687
   -17.2969 -17.2943 -17.2926 -17.2652 -16.8664 -16.8435 -16.8391 -16.8320
   -16.8304 -16.6267 -16.6077 -16.5965 -16.5792 -16.5787 -16.5781 -16.5757
   -16.5745 -16.5668 -16.5640 -16.5630 -16.5458 -16.4924 -16.4724 -16.4512
   -16.0322 -15.7682 -15.7452 -15.7126 -15.3863 -15.3514 -15.3231 -15.2441
   -15.1931 -15.0426 -15.0240 -14.9899 -14.9542 -14.7181 -14.7020 -14.6855
   -14.6344 -14.5908 -14.4992 -13.1750 -12.4764 -11.9757 -11.9262 -11.8837
   -11.5003 -11.4026 -10.7168 -10.6445 -10.3018 -10.2455 -10.1974  -9.5145
    -9.2422  -9.1181  -8.9011  -8.8569  -8.8173  -8.4843  -8.4063  -8.2468
    -8.2424  -8.1733  -8.1694  -8.0672  -8.0456  -7.9449  -7.8805  -7.8697
    -7.8394  -7.6642  -7.6428  -7.6201  -7.5992  -7.4992  -7.4260  -7.0504
    -7.0096  -6.9678  -6.9562  -6.7322  -6.7177  -6.6929  -6.6742  -6.6656
    -6.4746  -6.2751  -6.0237  -5.9435  -5.9289  -5.9219  -5.7374  -5.7019
    -5.6988  -5.6061  -5.4941  -5.4142  -5.3926  -5.3899  -5.3777  -5.3316
    -5.2621  -5.2495  -5.1921  -5.1858  -5.1843  -5.0010  -4.9941  -4.9710
    -4.9678  -4.9552  -4.7745  -4.7303  -4.7259  -4.6983  -4.6693  -4.5624
    -4.5554  -4.5486  -4.4185  -4.3855  -4.2922  -4.2820  -4.2453  -4.2281
    -4.1725  -4.1570  -4.1483  -4.1239  -3.8230  -3.8064  -3.8037  -3.6438
    -3.6347  -3.6091  -3.6031  -3.4983  -3.4413  -3.4201  -3.3941  -3.3872
    -3.3671  -3.3591  -3.3366  -3.3292  -3.2816  -3.2521  -3.2230  -3.2096
    -3.1836  -2.9802  -2.9353  -2.9268  -2.8939  -2.8499  -2.7731  -2.7579
    -2.7096  -2.6913  -2.5767  -2.4498  -0.6059  -0.4022  -0.3474  -0.2945
     0.3143   0.3816   0.4642   0.5188   0.5804   0.6666   0.7150   0.7555
     0.8282   0.8815   0.9528   0.9720   1.0151   1.0258   1.0298   1.3140
     1.3754   1.4036   1.4825   1.5319   1.7815   1.8082   1.8570   1.9957
     2.1237   2.1762   2.2289   2.2570   2.2717   2.2807   2.2958   2.4227
     2.5494   2.6340   2.6739   2.7009   2.9135   2.9374   2.9751   2.9997
     3.0225   3.0733   3.1222   3.1497   3.1817   3.2310   3.2685   3.4320
     3.4640   3.5162   3.5519   3.6006   3.6717   3.7199   3.7593   3.8248
     3.8761   3.9069   4.0062   4.0455   4.1127   4.1805   4.2101   4.2297
     4.2467   4.2939   4.3254   4.3481

          k = 0.0625 0.3969-0.2308 ( 96092 PWs)   bands (ev):

  -113.7099-113.7083-113.7068-113.7052 -71.1820 -71.1813 -71.1805 -71.1796
   -71.1790 -71.1785 -71.1771 -71.1766 -71.0116 -71.0099 -71.0079 -71.0069
   -24.3583 -22.0550 -19.1046 -18.2313 -18.1537 -18.1167 -18.1015 -17.8687
   -17.2936 -17.2904 -17.2881 -17.2745 -16.8630 -16.8580 -16.8531 -16.8419
   -16.7860 -16.6576 -16.6033 -16.5899 -16.5787 -16.5780 -16.5776 -16.5746
   -16.5740 -16.5691 -16.5655 -16.5635 -16.5427 -16.5157 -16.4710 -16.4406
   -16.0322 -15.7422 -15.7108 -15.6192 -15.4347 -15.3856 -15.3356 -15.3018
   -15.2203 -15.0291 -15.0042 -14.9542 -14.9146 -14.7339 -14.7103 -14.7020
   -14.6692 -14.6097 -14.4992 -13.1749 -12.3700 -12.0659 -11.9252 -11.8664
   -11.5003 -11.4026 -10.6578 -10.6274 -10.3856 -10.2352 -10.1677  -9.5145
    -9.2420  -9.0762  -8.9398  -8.8211  -8.7616  -8.4844  -8.4063  -8.2968
    -8.2944  -8.2403  -8.1995  -8.0665  -7.9843  -7.9777  -7.8893  -7.8670
    -7.8394  -7.7588  -7.7355  -7.6687  -7.6652  -7.4994  -7.3272  -7.0839
    -7.0307  -7.0089  -6.9818  -6.7192  -6.6651  -6.6335  -6.5447  -6.5386
    -6.4748  -6.2750  -6.0215  -5.9018  -5.8638  -5.8322  -5.7555  -5.7078
    -5.6638  -5.5990  -5.4966  -5.4563  -5.4114  -5.3708  -5.3503  -5.3268
    -5.2576  -5.2294  -5.2074  -5.1998  -5.1987  -5.0537  -5.0000  -4.9951
    -4.9538  -4.9488  -4.7951  -4.7848  -4.7660  -4.7517  -4.6716  -4.5490
    -4.5355  -4.5263  -4.4269  -4.4088  -4.2740  -4.2653  -4.2065  -4.1905
    -4.1309  -4.1237  -4.1026  -4.0782  -3.8273  -3.8245  -3.8077  -3.7459
    -3.5950  -3.5888  -3.5353  -3.5009  -3.4750  -3.4335  -3.3990  -3.3918
    -3.3716  -3.3560  -3.3490  -3.3239  -3.3116  -3.2505  -3.2048  -3.1928
    -3.1630  -3.0192  -2.9901  -2.9380  -2.8996  -2.8928  -2.8792  -2.7732
    -2.7566  -2.6721  -2.6658  -2.4484  -0.4457  -0.4338  -0.3721  -0.2672
     0.2964   0.3892   0.4144   0.5182   0.5446   0.6968   0.7611   0.8528
     0.8638   0.9334   0.9464   0.9823   1.0058   1.0300   1.0932   1.2865
     1.3401   1.3446   1.4829   1.4942   1.7729   1.8271   1.9183   1.9903
     2.0825   2.1677   2.1884   2.2096   2.2277   2.2646   2.3087   2.4790
     2.5613   2.5916   2.6034   2.6866   2.9247   2.9665   2.9830   3.0198
     3.0323   3.0643   3.1275   3.2041   3.2291   3.2417   3.3271   3.3864
     3.4177   3.4357   3.4747   3.5583   3.6630   3.7185   3.7709   3.7946
     3.8612   3.8970   4.0101   4.0459   4.1159   4.1308   4.1803   4.2603
     4.3088   4.3249   4.3740   4.3766

          k = 0.0625 0.5413-0.2308 ( 96066 PWs)   bands (ev):

  -113.7099-113.7083-113.7068-113.7052 -71.1820 -71.1813 -71.1805 -71.1796
   -71.1790 -71.1785 -71.1771 -71.1766 -71.0116 -71.0099 -71.0079 -71.0069
   -24.3583 -22.0550 -19.1046 -18.2014 -18.1850 -18.1181 -18.1008 -17.8687
   -17.2898 -17.2868 -17.2854 -17.2827 -16.8671 -16.8612 -16.8560 -16.8513
   -16.7319 -16.7048 -16.6013 -16.5869 -16.5785 -16.5778 -16.5762 -16.5749
   -16.5730 -16.5708 -16.5663 -16.5640 -16.5367 -16.5315 -16.4700 -16.4347
   -16.0322 -15.7244 -15.6860 -15.5061 -15.4629 -15.4484 -15.4125 -15.2716
   -15.2527 -15.0222 -14.9901 -14.9542 -14.8280 -14.7862 -14.7424 -14.7166
   -14.6480 -14.6321 -14.4992 -13.1749 -12.2451 -12.1819 -11.9237 -11.8575
   -11.5003 -11.4026 -10.6499 -10.5385 -10.4868 -10.2284 -10.1515  -9.5145
    -9.2419  -9.0219  -8.9931  -8.7975  -8.7221  -8.4844  -8.4064  -8.3185
    -8.3038  -8.2941  -8.2537  -8.0669  -7.9371  -7.9204  -7.9063  -7.8521
    -7.8417  -7.8376  -7.8143  -7.7061  -7.7012  -7.4994  -7.2039  -7.1407
    -7.0960  -7.0136  -6.9903  -6.7191  -6.6183  -6.6130  -6.4776  -6.4737
    -6.4654  -6.2748  -6.0209  -5.8768  -5.8418  -5.7525  -5.7242  -5.7124
    -5.6589  -5.5991  -5.5499  -5.4858  -5.3951  -5.3698  -5.3265  -5.3074
    -5.2626  -5.2246  -5.2223  -5.2049  -5.2028  -5.0778  -5.0547  -4.9678
    -4.9393  -4.8972  -4.8639  -4.8183  -4.8004  -4.7716  -4.6716  -4.5376
    -4.5222  -4.4803  -4.4636  -4.4120  -4.2494  -4.2257  -4.1998  -4.1860
    -4.1087  -4.1018  -4.0608  -4.0450  -3.8872  -3.8721  -3.8349  -3.8132
    -3.5424  -3.5388  -3.5183  -3.5093  -3.4412  -3.4343  -3.4266  -3.4015
    -3.3808  -3.3787  -3.3687  -3.3435  -3.2859  -3.1891  -3.1863  -3.1808
    -3.1516  -3.0694  -3.0099  -2.9948  -2.9683  -2.8941  -2.8272  -2.7962
    -2.7670  -2.7512  -2.6561  -2.4482  -0.4477  -0.3922  -0.3271  -0.2912
     0.2489   0.3389   0.4817   0.4987   0.5201   0.6639   0.8040   0.8765
     0.9214   0.9435   0.9545   0.9745   1.0238   1.0625   1.2118   1.2170
     1.3165   1.3375   1.4411   1.4885   1.7522   1.8549   1.9754   1.9981
     2.0371   2.1684   2.1892   2.2038   2.2236   2.2606   2.2756   2.5077
     2.5171   2.5349   2.6044   2.6502   2.9007   2.9898   3.0207   3.0326
     3.0577   3.1203   3.1817   3.2101   3.2640   3.2786   3.2972   3.3153
     3.3396   3.4466   3.4570   3.5039   3.6133   3.6765   3.8069   3.8602
     3.8844   3.9126   3.9259   3.9603   4.0958   4.1345   4.2302   4.2552
     4.2931   4.3506   4.4344   4.4497

          k = 0.0625-0.4691-0.2308 ( 96096 PWs)   bands (ev):

  -113.7099-113.7083-113.7068-113.7052 -71.1820 -71.1813 -71.1805 -71.1796
   -71.1790 -71.1785 -71.1771 -71.1766 -71.0116 -71.0099 -71.0079 -71.0069
   -24.3583 -22.0550 -19.1046 -18.2169 -18.1690 -18.1177 -18.1010 -17.8687
   -17.2912 -17.2891 -17.2861 -17.2789 -16.8647 -16.8602 -16.8567 -16.8473
   -16.7595 -16.6791 -16.6026 -16.5874 -16.5786 -16.5780 -16.5769 -16.5747
   -16.5734 -16.5701 -16.5659 -16.5639 -16.5402 -16.5247 -16.4706 -16.4365
   -16.0322 -15.7333 -15.6920 -15.5658 -15.4491 -15.4081 -15.3894 -15.2843
   -15.2377 -15.0275 -14.9905 -14.9542 -14.8754 -14.7425 -14.7370 -14.7159
   -14.6571 -14.6223 -14.4992 -13.1749 -12.3085 -12.1217 -11.9242 -11.8607
   -11.5003 -11.4026 -10.6509 -10.5877 -10.4349 -10.2311 -10.1570  -9.5145
    -9.2420  -9.0500  -8.9649  -8.8080  -8.7349  -8.4844  -8.4064  -8.3127
    -8.2890  -8.2682  -8.2582  -8.0669  -7.9538  -7.9179  -7.9011  -7.8852
    -7.8400  -7.8172  -7.7688  -7.6923  -7.6871  -7.4995  -7.2678  -7.0921
    -7.0787  -7.0138  -6.9923  -6.7192  -6.6336  -6.6065  -6.5076  -6.4949
    -6.4748  -6.2749  -6.0213  -5.8781  -5.8585  -5.7717  -5.7410  -5.7384
    -5.6217  -5.6194  -5.5153  -5.4810  -5.3892  -5.3823  -5.3320  -5.3235
    -5.2632  -5.2274  -5.2058  -5.2035  -5.1964  -5.0724  -5.0535  -4.9621
    -4.9438  -4.9354  -4.8128  -4.8079  -4.7896  -4.7711  -4.6715  -4.5359
    -4.5324  -4.5143  -4.4346  -4.4109  -4.2450  -4.2394  -4.2097  -4.1947
    -4.1201  -4.1055  -4.0746  -4.0649  -3.8533  -3.8343  -3.8248  -3.8101
    -3.5719  -3.5372  -3.5354  -3.5104  -3.4864  -3.4094  -3.4062  -3.3944
    -3.3857  -3.3737  -3.3555  -3.3258  -3.2762  -3.2424  -3.2242  -3.1815
    -3.1291  -3.0320  -2.9920  -2.9669  -2.9513  -2.9093  -2.8933  -2.7664
    -2.7510  -2.7162  -2.6632  -2.4487  -0.4405  -0.3890  -0.3783  -0.2709
     0.2699   0.3484   0.4500   0.5202   0.5460   0.6516   0.8100   0.8494
     0.9185   0.9254   0.9590   0.9666   0.9842   1.0690   1.2066   1.2237
     1.2999   1.3546   1.4507   1.5070   1.7505   1.8605   1.9519   1.9891
     2.0577   2.1682   2.1927   2.2011   2.2168   2.2636   2.2827   2.5213
     2.5317   2.5481   2.6133   2.6372   2.9104   2.9798   2.9954   3.0227
     3.0800   3.1012   3.1681   3.2058   3.2225   3.2606   3.2934   3.3205
     3.3872   3.4548   3.5060   3.5494   3.6164   3.6732   3.7816   3.7902
     3.8599   3.9278   3.9611   3.9861   4.0965   4.2047   4.2348   4.2553
     4.2808   4.3403   4.4090   4.4319

          k = 0.0625-0.3248-0.2308 ( 96052 PWs)   bands (ev):

  -113.7099-113.7083-113.7068-113.7052 -71.1820 -71.1813 -71.1805 -71.1796
   -71.1790 -71.1785 -71.1771 -71.1766 -71.0116 -71.0099 -71.0079 -71.0069
   -24.3583 -22.0550 -19.1046 -18.2441 -18.1395 -18.1158 -18.1019 -17.8687
   -17.2952 -17.2926 -17.2902 -17.2697 -16.8653 -16.8515 -16.8452 -16.8372
   -16.8101 -16.6394 -16.6066 -16.5920 -16.5790 -16.5784 -16.5779 -16.5751
   -16.5743 -16.5678 -16.5648 -16.5632 -16.5446 -16.5045 -16.4720 -16.4454
   -16.0322 -15.7582 -15.7239 -15.6712 -15.4064 -15.3762 -15.3099 -15.2859
   -15.2062 -15.0401 -15.0060 -14.9586 -14.9541 -14.7245 -14.7086 -14.6769
   -14.6648 -14.6004 -14.4992 -13.1749 -12.4267 -12.0168 -11.9257 -11.8746
   -11.5003 -11.4026 -10.6843 -10.6422 -10.3403 -10.2411 -10.1813  -9.5145
    -9.2421  -9.0990  -8.9175  -8.8408  -8.7890  -8.4843  -8.4063  -8.2855
    -8.2346  -8.2153  -8.2059  -8.0667  -8.0181  -7.9260  -7.9174  -7.8707
    -7.8396  -7.7116  -7.6877  -7.6405  -7.6340  -7.4996  -7.3816  -7.0672
    -7.0144  -6.9912  -6.9750  -6.7200  -6.6814  -6.6449  -6.6239  -6.6055
    -6.4748  -6.2750  -6.0229  -5.9125  -5.9016  -5.8857  -5.7354  -5.7296
    -5.6680  -5.5962  -5.4948  -5.4199  -5.4004  -5.3974  -5.3594  -5.3380
    -5.2549  -5.2383  -5.2053  -5.1917  -5.1840  -5.0232  -5.0163  -4.9846
    -4.9629  -4.9442  -4.7763  -4.7641  -4.7354  -4.7320  -4.6707  -4.5566
    -4.5497  -4.5423  -4.4186  -4.3979  -4.2880  -4.2544  -4.2291  -4.2227
    -4.1598  -4.1294  -4.1192  -4.1054  -3.8235  -3.8089  -3.7988  -3.6699
    -3.6272  -3.5917  -3.5881  -3.4999  -3.4790  -3.4032  -3.3965  -3.3890
    -3.3752  -3.3671  -3.3404  -3.3177  -3.2966  -3.2519  -3.2193  -3.2040
    -3.1806  -2.9726  -2.9713  -2.9261  -2.9077  -2.8938  -2.8035  -2.7647
    -2.7562  -2.6819  -2.6152  -2.4499  -0.5231  -0.4160  -0.3642  -0.2747
     0.3450   0.3666   0.4078   0.5339   0.5873   0.6624   0.7739   0.8024
     0.8113   0.9151   0.9315   0.9578   0.9996   1.0464   1.0775   1.3033
     1.3174   1.4162   1.4615   1.5272   1.7654   1.8357   1.8799   1.9912
     2.1021   2.1729   2.2047   2.2321   2.2436   2.2663   2.2988   2.4583
     2.5741   2.6192   2.6309   2.6904   2.9161   2.9415   2.9803   2.9981
     3.0402   3.0834   3.1229   3.1617   3.1962   3.2392   3.2692   3.3833
     3.4752   3.5001   3.5462   3.6191   3.6447   3.6924   3.7396   3.7625
     3.8573   3.9552   4.0203   4.0764   4.1248   4.1638   4.1962   4.2477
     4.2850   4.3089   4.3489   4.3730

          k = 0.0625-0.1804-0.2308 ( 96040 PWs)   bands (ev):

  -113.7099-113.7083-113.7068-113.7052 -71.1820 -71.1813 -71.1805 -71.1796
   -71.1790 -71.1785 -71.1771 -71.1766 -71.0116 -71.0099 -71.0079 -71.0069
   -24.3583 -22.0550 -19.1046 -18.2632 -18.1181 -18.1127 -18.1034 -17.8687
   -17.2978 -17.2963 -17.2947 -17.2613 -16.8682 -16.8483 -16.8356 -16.8303
   -16.8277 -16.6172 -16.6106 -16.6002 -16.5793 -16.5789 -16.5782 -16.5759
   -16.5752 -16.5657 -16.5637 -16.5624 -16.5467 -16.4808 -16.4722 -16.4573
   -16.0322 -15.7782 -15.7586 -15.7485 -15.3623 -15.3430 -15.3263 -15.2109
   -15.1831 -15.0499 -15.0287 -15.0219 -14.9542 -14.7103 -14.7002 -14.6903
   -14.6088 -14.5848 -14.4991 -13.1750 -12.5163 -11.9439 -11.9247 -11.8938
   -11.5003 -11.4026 -10.7428 -10.6453 -10.2711 -10.2493 -10.2128  -9.5145
    -9.2424  -9.1326  -8.8877  -8.8696  -8.8432  -8.4842  -8.4062  -8.2260
    -8.1975  -8.1794  -8.1437  -8.0760  -8.0613  -7.8998  -7.8896  -7.8615
    -7.8395  -7.6233  -7.6113  -7.5986  -7.5612  -7.5003  -7.4621  -7.0253
    -7.0017  -6.9684  -6.9366  -6.7530  -6.7457  -6.7400  -6.7277  -6.7135
    -6.4745  -6.2751  -6.0265  -5.9615  -5.9573  -5.9534  -5.7215  -5.7192
    -5.6974  -5.6223  -5.4939  -5.4093  -5.4051  -5.3851  -5.3698  -5.3237
    -5.2771  -5.2506  -5.1871  -5.1843  -5.1772  -4.9939  -4.9845  -4.9639
    -4.9604  -4.9440  -4.7706  -4.7180  -4.6947  -4.6907  -4.6652  -4.5629
    -4.5556  -4.5505  -4.4178  -4.3693  -4.2965  -4.2757  -4.2677  -4.2434
    -4.2003  -4.1801  -4.1644  -4.1570  -3.8242  -3.8198  -3.8087  -3.6581
    -3.6494  -3.6382  -3.5670  -3.4938  -3.4461  -3.4094  -3.4052  -3.3781
    -3.3664  -3.3514  -3.3289  -3.3221  -3.2675  -3.2408  -3.2330  -3.2235
    -3.1513  -2.9534  -2.9399  -2.9219  -2.8937  -2.8023  -2.7641  -2.7583
    -2.7078  -2.6278  -2.5431  -2.4519  -0.6850  -0.3824  -0.3420  -0.3169
     0.2627   0.4299   0.4781   0.5266   0.5843   0.6199   0.6447   0.7791
     0.8155   0.8435   0.9669   0.9900   1.0142   1.0256   1.0282   1.3066
     1.4054   1.4557   1.4703   1.5400   1.7808   1.8150   1.8292   1.9962
     2.1415   2.1880   2.2474   2.2764   2.2840   2.2993   2.3192   2.3849
     2.5301   2.6562   2.6654   2.6869   2.9100   2.9635   2.9817   3.0049
     3.0212   3.0619   3.0988   3.1434   3.1802   3.2171   3.2545   3.4460
     3.4825   3.5133   3.5767   3.5993   3.7017   3.7296   3.7633   3.8093
     3.9387   3.9518   3.9881   4.0461   4.1023   4.1464   4.2078   4.2155
     4.2335   4.2548   4.3006   4.3524

          k = 0.0625-0.0361-0.2308 ( 95996 PWs)   bands (ev):

  -113.7099-113.7083-113.7068-113.7052 -71.1820 -71.1813 -71.1804 -71.1796
   -71.1790 -71.1785 -71.1771 -71.1766 -71.0116 -71.0099 -71.0079 -71.0069
   -24.3583 -22.0550 -19.1046 -18.2719 -18.1110 -18.1086 -18.1040 -17.8687
   -17.2993 -17.2984 -17.2966 -17.2568 -16.8696 -16.8656 -16.8266 -16.8221
   -16.8217 -16.6110 -16.6086 -16.6082 -16.5795 -16.5792 -16.5783 -16.5763
   -16.5757 -16.5650 -16.5630 -16.5618 -16.5476 -16.4701 -16.4676 -16.4656
   -16.0322 -15.7847 -15.7833 -15.7804 -15.3361 -15.3328 -15.3286 -15.1767
   -15.1720 -15.0528 -15.0499 -15.0464 -14.9542 -14.7035 -14.6978 -14.6938
   -14.5811 -14.5790 -14.4990 -13.1750 -12.5588 -11.9184 -11.9121 -11.9092
   -11.5002 -11.4026 -10.7702 -10.6457 -10.2467 -10.2410 -10.2359  -9.5145
    -9.2425  -9.1475  -8.8790  -8.8769  -8.8734  -8.4842  -8.4063  -8.1816
    -8.1782  -8.1737  -8.1101  -8.0990  -8.0622  -7.8686  -7.8634  -7.8612
    -7.8396  -7.5805  -7.5780  -7.5740  -7.5156  -7.5045  -7.4917  -7.0147
    -6.9539  -6.9450  -6.9364  -6.8226  -6.8094  -6.8024  -6.7979  -6.7165
    -6.4744  -6.2752  -6.0299  -5.9904  -5.9847  -5.9796  -5.7156  -5.7137
    -5.7091  -5.6458  -5.4935  -5.4094  -5.4063  -5.3915  -5.3585  -5.3064
    -5.2996  -5.2496  -5.1837  -5.1799  -5.1747  -4.9846  -4.9772  -4.9750
    -4.9289  -4.9238  -4.7687  -4.6955  -4.6901  -4.6837  -4.6595  -4.5487
    -4.5459  -4.5441  -4.4181  -4.3258  -4.2941  -4.2833  -4.2719  -4.2646
    -4.2436  -4.2121  -4.2098  -4.1962  -3.8339  -3.8317  -3.8297  -3.6702
    -3.6676  -3.6646  -3.5385  -3.4856  -3.4756  -3.4076  -3.3835  -3.3815
    -3.3679  -3.3268  -3.3244  -3.3174  -3.2645  -3.2595  -3.2563  -3.1375
    -3.1209  -2.9333  -2.9302  -2.9246  -2.8936  -2.7668  -2.7488  -2.7346
    -2.7342  -2.5242  -2.5115  -2.4534  -0.7841  -0.3538  -0.3504  -0.3413
     0.1966   0.4959   0.4986   0.5190   0.5617   0.5634   0.5750   0.7995
     0.8067   0.8119   1.0060   1.0115   1.0181   1.0202   1.0219   1.3051
     1.4625   1.4699   1.4803   1.5446   1.7964   1.8048   1.8116   1.9989
     2.1610   2.2193   2.2412   2.2759   2.3126   2.3492   2.3591   2.3674
     2.5061   2.6270   2.6421   2.6468   2.9054   2.9984   3.0051   3.0245
     3.0345   3.0423   3.0645   3.1496   3.1783   3.2072   3.2972   3.4481
     3.4593   3.4793   3.5618   3.6456   3.7203   3.7595   3.8121   3.8447
     3.8807   3.9403   4.0023   4.0363   4.0949   4.1367   4.1643   4.1918
     4.2019   4.2596   4.2938   4.3111

          k = 0.1875 0.3248-0.2308 ( 96062 PWs)   bands (ev):

  -113.7099-113.7083-113.7068-113.7052 -71.1820 -71.1813 -71.1805 -71.1796
   -71.1790 -71.1785 -71.1771 -71.1766 -71.0116 -71.0099 -71.0079 -71.0069
   -24.3583 -22.0550 -19.1046 -18.2363 -18.1382 -18.1321 -18.0960 -17.8687
   -17.2947 -17.2921 -17.2874 -17.2727 -16.8643 -16.8585 -16.8460 -16.8427
   -16.7949 -16.6299 -16.6280 -16.5858 -16.5787 -16.5782 -16.5774 -16.5751
   -16.5742 -16.5684 -16.5662 -16.5629 -16.5434 -16.4992 -16.4984 -16.4281
   -16.0322 -15.7623 -15.6726 -15.6679 -15.4411 -15.3405 -15.3310 -15.3137
   -15.2173 -15.0450 -14.9664 -14.9586 -14.9540 -14.7389 -14.6920 -14.6870
   -14.6825 -14.6054 -14.4992 -13.1749 -12.3919 -11.9992 -11.9956 -11.8461
   -11.5003 -11.4026 -10.6660 -10.6351 -10.3190 -10.3134 -10.1449  -9.5145
    -9.2421  -9.0848  -8.8943  -8.8911  -8.7436  -8.4843  -8.4064  -8.3064
    -8.2808  -8.2297  -8.1552  -8.0651  -8.0135  -7.9936  -7.8935  -7.8594
    -7.8392  -7.7527  -7.6823  -7.6803  -7.6634  -7.4991  -7.3432  -7.1269
    -7.0123  -6.9796  -6.9601  -6.7190  -6.6507  -6.6414  -6.5855  -6.5663
    -6.4748  -6.2751  -6.0215  -5.8885  -5.8830  -5.8558  -5.7518  -5.7100
    -5.6721  -5.5970  -5.4923  -5.4454  -5.4114  -5.3750  -5.3608  -5.3309
    -5.2554  -5.2274  -5.2115  -5.1935  -5.1818  -5.0283  -5.0176  -4.9903
    -4.9688  -4.9551  -4.7988  -4.7691  -4.7615  -4.7454  -4.6715  -4.5497
    -4.5399  -4.5304  -4.4200  -4.3961  -4.2827  -4.2760  -4.2096  -4.1829
    -4.1562  -4.1123  -4.1090  -4.0972  -3.8352  -3.8060  -3.7974  -3.7151
    -3.6166  -3.5947  -3.5464  -3.4983  -3.4784  -3.4405  -3.4106  -3.3944
    -3.3820  -3.3690  -3.3278  -3.3104  -3.2769  -3.2598  -3.2385  -3.1966
    -3.1504  -3.0149  -2.9480  -2.9436  -2.8948  -2.8714  -2.8653  -2.8454
    -2.7605  -2.6372  -2.6319  -2.4476  -0.4765  -0.4522  -0.3098  -0.3032
     0.2769   0.3920   0.4660   0.4922   0.5163   0.7371   0.7801   0.8057
     0.9058   0.9103   0.9379   0.9898   0.9936   1.0146   1.0443   1.2457
     1.3354   1.4239   1.4711   1.5108   1.7380   1.8828   1.9043   1.9954
     2.1041   2.1661   2.1973   2.2086   2.2286   2.2665   2.2970   2.4779
     2.5839   2.5940   2.6430   2.6563   2.9275   2.9697   2.9731   3.0000
     3.0442   3.1006   3.1271   3.1843   3.2107   3.2323   3.2817   3.3910
     3.4325   3.5016   3.5171   3.5492   3.6397   3.7161   3.7539   3.7924
     3.8761   3.9403   3.9771   4.0344   4.0746   4.1595   4.1873   4.2476
     4.2663   4.3274   4.3475   4.3785

          k = 0.1875 0.4691-0.2308 ( 96084 PWs)   bands (ev):

  -113.7099-113.7083-113.7068-113.7052 -71.1820 -71.1813 -71.1805 -71.1796
   -71.1790 -71.1785 -71.1771 -71.1766 -71.0116 -71.0099 -71.0079 -71.0069
   -24.3583 -22.0550 -19.1046 -18.2100 -18.1640 -18.1398 -18.0917 -17.8687
   -17.2918 -17.2889 -17.2835 -17.2802 -16.8707 -16.8603 -16.8560 -16.8507
   -16.7450 -16.6674 -16.6282 -16.5810 -16.5784 -16.5775 -16.5766 -16.5745
   -16.5734 -16.5701 -16.5678 -16.5630 -16.5387 -16.5214 -16.5017 -16.4114
   -16.0322 -15.7468 -15.6349 -15.5697 -15.4900 -15.4101 -15.3536 -15.3095
   -15.2502 -15.0396 -14.9544 -14.9446 -14.8825 -14.7639 -14.7562 -14.6884
   -14.6659 -14.6255 -14.4992 -13.1749 -12.2793 -12.0991 -12.0088 -11.8212
   -11.5003 -11.4026 -10.6505 -10.5640 -10.4120 -10.3206 -10.1077  -9.5145
    -9.2420  -9.0351  -8.9457  -8.8771  -8.6741  -8.4844  -8.4065  -8.3403
    -8.3168  -8.2892  -8.1507  -8.0718  -8.0509  -7.9242  -7.8847  -7.8524
    -7.8419  -7.8357  -7.7630  -7.7228  -7.7189  -7.4993  -7.2294  -7.1728
    -7.0529  -7.0087  -6.9709  -6.7189  -6.6128  -6.5907  -6.4912  -6.4852
    -6.4748  -6.2750  -6.0207  -5.8549  -5.7944  -5.7853  -5.7667  -5.6811
    -5.6627  -5.6357  -5.5318  -5.4855  -5.4083  -5.3482  -5.3427  -5.3084
    -5.2617  -5.2349  -5.2109  -5.1874  -5.1846  -5.0623  -5.0214  -5.0095
    -4.9538  -4.9393  -4.8522  -4.8283  -4.8048  -4.7693  -4.6712  -4.5430
    -4.5047  -4.4859  -4.4337  -4.4094  -4.2667  -4.2608  -4.1806  -4.1556
    -4.1168  -4.0932  -4.0803  -4.0618  -3.8559  -3.8525  -3.8431  -3.8094
    -3.5772  -3.5585  -3.5252  -3.4988  -3.4615  -3.4474  -3.4437  -3.3903
    -3.3835  -3.3648  -3.3418  -3.3332  -3.2560  -3.2134  -3.2079  -3.1870
    -3.1620  -3.0370  -3.0108  -3.0040  -2.9457  -2.8942  -2.8568  -2.8355
    -2.7621  -2.7315  -2.5919  -2.4476  -0.4795  -0.3649  -0.3310  -0.2942
     0.1914   0.4318   0.4452   0.4534   0.4786   0.7482   0.8212   0.8750
     0.9150   0.9465   0.9698   0.9979   1.0185   1.0287   1.1047   1.1453
     1.3477   1.4065   1.4629   1.4928   1.6870   1.9558   1.9869   2.0083
     2.0887   2.1633   2.1763   2.1906   2.2097   2.2627   2.2891   2.5016
     2.5285   2.5497   2.6221   2.6428   2.9427   2.9792   2.9987   3.0348
     3.0608   3.0842   3.1462   3.2335   3.2673   3.2881   3.3159   3.3413
     3.3702   3.4084   3.4610   3.4892   3.6129   3.7370   3.7935   3.8101
     3.8451   3.9063   3.9439   4.0232   4.0739   4.1325   4.1837   4.2553
     4.3144   4.3380   4.3970   4.4057

          k = 0.1875 0.6134-0.2308 ( 96082 PWs)   bands (ev):

  -113.7099-113.7083-113.7068-113.7052 -71.1820 -71.1813 -71.1805 -71.1796
   -71.1790 -71.1785 -71.1771 -71.1766 -71.0116 -71.0099 -71.0079 -71.0069
   -24.3583 -22.0550 -19.1046 -18.1951 -18.1791 -18.1410 -18.0908 -17.8687
   -17.2906 -17.2875 -17.2841 -17.2817 -16.8733 -16.8595 -16.8564 -16.8546
   -16.7182 -16.6912 -16.6286 -16.5797 -16.5784 -16.5778 -16.5761 -16.5750
   -16.5728 -16.5707 -16.5679 -16.5631 -16.5348 -16.5291 -16.5023 -16.4076
   -16.0322 -15.7425 -15.6228 -15.5190 -15.5011 -15.4616 -15.3646 -15.2856
   -15.2716 -15.0387 -14.9543 -14.9361 -14.8475 -14.8008 -14.7604 -14.6911
   -14.6508 -14.6394 -14.4992 -13.1749 -12.2183 -12.1576 -12.0109 -11.8159
   -11.5003 -11.4026 -10.6495 -10.5155 -10.4633 -10.3214 -10.0993  -9.5145
    -9.2419  -9.0058  -8.9753  -8.8738  -8.6540  -8.4844  -8.4065  -8.3384
    -8.3268  -8.3061  -8.1895  -8.0685  -8.0092  -7.9031  -7.8943  -7.8703
    -7.8479  -7.8394  -7.7826  -7.7381  -7.7326  -7.4994  -7.1836  -7.1668
    -7.1047  -7.0089  -6.9781  -6.7191  -6.6078  -6.5573  -6.4881  -6.4756
    -6.4610  -6.2750  -6.0209  -5.8453  -5.7941  -5.7557  -5.7290  -5.7012
    -5.6789  -5.6034  -5.5827  -5.4852  -5.3959  -5.3563  -5.3279  -5.3079
    -5.2732  -5.2415  -5.1919  -5.1842  -5.1725  -5.0793  -5.0666  -4.9886
    -4.9324  -4.9239  -4.8711  -4.8430  -4.8348  -4.7707  -4.6708  -4.5391
    -4.4980  -4.4742  -4.4373  -4.4111  -4.2613  -4.2190  -4.2138  -4.1532
    -4.1065  -4.0844  -4.0675  -4.0509  -3.8844  -3.8683  -3.8618  -3.8162
    -3.5637  -3.5443  -3.5297  -3.5174  -3.4648  -3.4345  -3.4130  -3.3868
    -3.3843  -3.3773  -3.3665  -3.3334  -3.2338  -3.2155  -3.1975  -3.1838
    -3.1310  -3.0771  -3.0645  -2.9838  -2.9544  -2.8941  -2.8497  -2.8297
    -2.7707  -2.7514  -2.5842  -2.4486  -0.4831  -0.3422  -0.3280  -0.3018
     0.1721   0.4092   0.4344   0.4660   0.4877   0.7637   0.8009   0.9001
     0.9231   0.9379   0.9427   0.9814   1.0418   1.0534   1.1155   1.2340
     1.2433   1.4204   1.4523   1.5106   1.6685   1.9777   1.9987   2.0513
     2.0738   2.1639   2.1817   2.1967   2.2198   2.2333   2.2676   2.5154
     2.5279   2.5417   2.5642   2.6575   2.9125   2.9777   3.0150   3.0359
     3.1075   3.1256   3.1566   3.2182   3.2494   3.2874   3.3000   3.3393
     3.3802   3.4007   3.4416   3.5062   3.5994   3.7532   3.7795   3.7970
     3.8236   3.8542   3.9381   4.0131   4.0873   4.1930   4.2170   4.2687
     4.2884   4.3700   4.4222   4.4478

          k = 0.1875-0.3969-0.2308 ( 96040 PWs)   bands (ev):

  -113.7099-113.7083-113.7068-113.7052 -71.1820 -71.1813 -71.1805 -71.1796
   -71.1790 -71.1785 -71.1771 -71.1766 -71.0116 -71.0099 -71.0079 -71.0069
   -24.3583 -22.0550 -19.1046 -18.2240 -18.1489 -18.1381 -18.0933 -17.8687
   -17.2927 -17.2912 -17.2850 -17.2766 -16.8664 -16.8623 -16.8502 -16.8480
   -16.7707 -16.6454 -16.6295 -16.5821 -16.5787 -16.5782 -16.5772 -16.5749
   -16.5738 -16.5689 -16.5670 -16.5629 -16.5415 -16.5113 -16.5005 -16.4186
   -16.0322 -15.7549 -15.6473 -15.6253 -15.4677 -15.3590 -15.3510 -15.3177
   -15.2337 -15.0431 -14.9543 -14.9459 -14.9300 -14.7488 -14.7225 -14.6906
   -14.6732 -14.6164 -14.4992 -13.1749 -12.3377 -12.0452 -12.0042 -11.8317
   -11.5003 -11.4026 -10.6523 -10.6082 -10.3618 -10.3195 -10.1232  -9.5144
    -9.2420  -9.0613  -8.9166  -8.8849  -8.7065  -8.4844  -8.4064  -8.3248
    -8.3028  -8.2598  -8.1643  -8.0685  -8.0243  -7.9615  -7.8873  -7.8575
    -7.8399  -7.8055  -7.7189  -7.7031  -7.6919  -7.4995  -7.2907  -7.1543
    -7.0169  -6.9919  -6.9798  -6.7194  -6.6310  -6.5795  -6.5635  -6.5166
    -6.4750  -6.2750  -6.0220  -5.8648  -5.8391  -5.8249  -5.7573  -5.7116
    -5.6532  -5.6096  -5.5035  -5.4731  -5.4064  -5.3711  -5.3385  -5.3269
    -5.2584  -5.2270  -5.2109  -5.1913  -5.1811  -5.0511  -5.0378  -4.9833
    -4.9599  -4.9573  -4.8175  -4.7947  -4.7840  -4.7695  -4.6705  -4.5429
    -4.5201  -4.5173  -4.4198  -4.4064  -4.2704  -4.2631  -4.1990  -4.1662
    -4.1386  -4.0959  -4.0931  -4.0842  -3.8469  -3.8114  -3.8102  -3.7884
    -3.6016  -3.5698  -3.5247  -3.5028  -3.4999  -3.4316  -3.4253  -3.3901
    -3.3830  -3.3767  -3.3361  -3.2895  -3.2575  -3.2533  -3.2496  -3.1956
    -3.1357  -3.0144  -2.9595  -2.9534  -2.9472  -2.9093  -2.8937  -2.8319
    -2.7622  -2.6746  -2.6086  -2.4497  -0.4688  -0.4150  -0.3220  -0.2933
     0.2292   0.4235   0.4409   0.4807   0.4960   0.7457   0.7917   0.8646
     0.9040   0.9323   0.9413   0.9704   1.0048   1.0507   1.0805   1.1864
     1.3270   1.4362   1.4572   1.5080   1.7102   1.9319   1.9441   1.9914
     2.0929   2.1663   2.1840   2.1945   2.2142   2.2651   2.2859   2.5004
     2.5649   2.6009   2.6104   2.6288   2.9199   2.9710   2.9862   3.0148
     3.0580   3.1138   3.1596   3.1921   3.2360   3.2526   3.2799   3.3071
     3.4375   3.4806   3.4914   3.5526   3.6408   3.6991   3.7403   3.7929
     3.8204   3.9240   3.9999   4.0680   4.1045   4.1656   4.2207   4.2509
     4.2965   4.3255   4.3724   4.4248

          k = 0.1875-0.2526-0.2308 ( 96066 PWs)   bands (ev):

  -113.7099-113.7083-113.7068-113.7052 -71.1820 -71.1813 -71.1805 -71.1796
   -71.1790 -71.1785 -71.1771 -71.1766 -71.0116 -71.0099 -71.0079 -71.0069
   -24.3583 -22.0550 -19.1046 -18.2468 -18.1315 -18.1238 -18.0989 -17.8687
   -17.2953 -17.2939 -17.2901 -17.2687 -16.8664 -16.8507 -16.8414 -16.8373
   -16.8147 -16.6287 -16.6164 -16.5903 -16.5790 -16.5783 -16.5778 -16.5755
   -16.5747 -16.5668 -16.5657 -16.5626 -16.5449 -16.4959 -16.4850 -16.4400
   -16.0322 -15.7664 -15.7132 -15.6909 -15.4138 -15.3425 -15.3292 -15.2754
   -15.2033 -15.0452 -14.9995 -14.9722 -14.9542 -14.7282 -14.6926 -14.6882
   -14.6572 -14.5985 -14.4992 -13.1749 -12.4387 -11.9880 -11.9570 -11.8642
   -11.5003 -11.4026 -10.6918 -10.6431 -10.3105 -10.2772 -10.1701  -9.5145
    -9.2422  -9.1034  -8.8971  -8.8719  -8.7844  -8.4843  -8.4063  -8.2779
    -8.2616  -8.1999  -8.1595  -8.0666  -8.0235  -7.9815  -7.8901  -7.8610
    -7.8397  -7.7044  -7.6604  -7.6475  -7.6276  -7.4996  -7.3915  -7.0895
    -7.0104  -6.9719  -6.9526  -6.7209  -6.6935  -6.6707  -6.6233  -6.6204
    -6.4747  -6.2751  -6.0240  -5.9186  -5.9076  -5.8909  -5.7458  -5.7039
    -5.6876  -5.5980  -5.4939  -5.4185  -5.4122  -5.3839  -5.3646  -5.3325
    -5.2515  -5.2472  -5.1977  -5.1942  -5.1848  -5.0158  -5.0079  -4.9719
    -4.9697  -4.9571  -4.7753  -4.7603  -4.7408  -4.7169  -4.6696  -4.5544
    -4.5483  -4.5444  -4.4179  -4.3973  -4.2905  -4.2813  -4.2260  -4.2021
    -4.1694  -4.1351  -4.1264  -4.1109  -3.8276  -3.8034  -3.7964  -3.6539
    -3.6285  -3.6220  -3.5776  -3.4989  -3.4487  -3.4319  -3.4059  -3.3879
    -3.3765  -3.3679  -3.3278  -3.3160  -3.3066  -3.2571  -3.2081  -3.2025
    -3.1785  -3.0032  -2.9377  -2.9312  -2.8939  -2.8527  -2.8208  -2.7848
    -2.7588  -2.6591  -2.6041  -2.4508  -0.5424  -0.4302  -0.3258  -0.2962
     0.3283   0.3543   0.4790   0.4955   0.5511   0.7355   0.7380   0.7535
     0.8681   0.8973   0.9423   0.9870   1.0032   1.0080   1.0337   1.3113
     1.3283   1.4123   1.4812   1.5224   1.7614   1.8436   1.8710   1.9931
     2.1120   2.1728   2.2151   2.2331   2.2444   2.2645   2.3007   2.4467
     2.5689   2.6202   2.6637   2.6910   2.9147   2.9492   2.9754   2.9891
     3.0234   3.0836   3.1325   3.1694   3.1798   3.2268   3.2857   3.3738
     3.4654   3.5169   3.5453   3.5879   3.6725   3.7099   3.7328   3.8362
     3.8792   3.9513   4.0185   4.0439   4.1144   4.1856   4.2075   4.2316
     4.2588   4.2925   4.3307   4.3586

          k = 0.1875-0.1083-0.2308 ( 96046 PWs)   bands (ev):

  -113.7099-113.7083-113.7068-113.7052 -71.1820 -71.1813 -71.1805 -71.1796
   -71.1790 -71.1785 -71.1771 -71.1766 -71.0116 -71.0099 -71.0079 -71.0069
   -24.3583 -22.0550 -19.1046 -18.2604 -18.1226 -18.1106 -18.1046 -17.8687
   -17.2972 -17.2961 -17.2938 -17.2627 -16.8680 -16.8424 -16.8378 -16.8340
   -16.8288 -16.6224 -16.6036 -16.6027 -16.5793 -16.5786 -16.5779 -16.5761
   -16.5753 -16.5658 -16.5644 -16.5622 -16.5464 -16.4868 -16.4635 -16.4621
   -16.0322 -15.7676 -15.7647 -15.7327 -15.3635 -15.3575 -15.3207 -15.2228
   -15.1858 -15.0429 -15.0369 -15.0056 -14.9542 -14.7112 -14.7015 -14.6897
   -14.6155 -14.5889 -14.4991 -13.1750 -12.5027 -11.9611 -11.9062 -11.9026
   -11.5003 -11.4026 -10.7341 -10.6450 -10.2882 -10.2269 -10.2218  -9.5145
    -9.2424  -9.1276  -8.8946  -8.8502  -8.8470  -8.4842  -8.4063  -8.2348
    -8.2073  -8.1829  -8.1537  -8.0681  -8.0614  -7.9129  -7.8823  -7.8694
    -7.8397  -7.6335  -7.6306  -7.6017  -7.5746  -7.4995  -7.4504  -7.0230
    -7.0006  -6.9835  -6.9455  -6.7449  -6.7252  -6.7173  -6.7129  -6.7062
    -6.4745  -6.2751  -6.0257  -5.9523  -5.9472  -5.9460  -5.7298  -5.7125
    -5.6954  -5.6164  -5.4934  -5.4130  -5.3971  -5.3868  -5.3739  -5.3270
    -5.2717  -5.2490  -5.1900  -5.1857  -5.1802  -4.9954  -4.9807  -4.9773
    -4.9631  -4.9445  -4.7708  -4.7188  -4.7094  -4.6907  -4.6663  -4.5639
    -4.5557  -4.5513  -4.4180  -4.3758  -4.2983  -4.2680  -4.2604  -4.2506
    -4.1824  -4.1711  -4.1663  -4.1411  -3.8225  -3.8154  -3.8053  -3.6564
    -3.6383  -3.6313  -3.5793  -3.4970  -3.4370  -3.4321  -3.3868  -3.3765
    -3.3711  -3.3435  -3.3385  -3.3322  -3.2503  -3.2462  -3.2420  -3.2279
    -3.1615  -2.9585  -2.9434  -2.9222  -2.8937  -2.8265  -2.7659  -2.7287
    -2.7258  -2.6547  -2.5565  -2.4518  -0.6564  -0.3738  -0.3690  -0.2993
     0.2817   0.4315   0.4440   0.5359   0.5998   0.6161   0.6748   0.7835
     0.7995   0.8601   0.9657   0.9717   1.0151   1.0281   1.0338   1.3083
     1.4022   1.4291   1.4774   1.5383   1.7881   1.8014   1.8389   1.9971
     2.1387   2.1794   2.2414   2.2640   2.2884   2.2939   2.3028   2.3990
     2.5368   2.6488   2.6688   2.6958   2.9130   2.9460   2.9765   3.0125
     3.0332   3.0457   3.1052   3.1503   3.1847   3.2221   3.2443   3.4454
     3.4714   3.5080   3.5851   3.6228   3.6608   3.6873   3.8062   3.8357
     3.9135   3.9569   4.0357   4.0448   4.0702   4.1623   4.2029   4.2192
     4.2408   4.2693   4.3086   4.3523

          k = 0.3125 0.5413-0.2308 ( 96108 PWs)   bands (ev):

  -113.7099-113.7083-113.7068-113.7052 -71.1820 -71.1813 -71.1805 -71.1796
   -71.1790 -71.1785 -71.1771 -71.1766 -71.0116 -71.0099 -71.0079 -71.0069
   -24.3583 -22.0550 -19.1046 -18.1830 -18.1712 -18.1652 -18.0872 -17.8687
   -17.2901 -17.2868 -17.2862 -17.2800 -16.8768 -16.8595 -16.8584 -16.8558
   -16.6953 -16.6710 -16.6692 -16.5785 -16.5781 -16.5769 -16.5759 -16.5751
   -16.5721 -16.5711 -16.5690 -16.5627 -16.5307 -16.5240 -16.5231 -16.3962
   -16.0322 -15.7447 -15.5452 -15.5421 -15.5210 -15.4973 -15.3162 -15.3136
   -15.2925 -15.0422 -14.9543 -14.8745 -14.8679 -14.8346 -14.7689 -14.6646
   -14.6631 -14.6480 -14.4993 -13.1749 -12.1702 -12.1155 -12.1122 -11.7998
   -11.5003 -11.4026 -10.6496 -10.4725 -10.4249 -10.4187 -10.0780  -9.5145
    -9.2420  -8.9780  -8.9451  -8.9439  -8.6175  -8.4844  -8.4066  -8.3416
    -8.3373  -8.3283  -8.1211  -8.0912  -8.0609  -7.9339  -7.8636  -7.8507
    -7.8416  -7.8353  -7.7819  -7.7753  -7.7679  -7.4993  -7.2179  -7.1119
    -7.0606  -7.0518  -7.0023  -6.7190  -6.5999  -6.4995  -6.4873  -6.4752
    -6.4705  -6.2752  -6.0207  -5.7832  -5.7657  -5.7640  -5.7370  -5.7147
    -5.6508  -5.6406  -5.6113  -5.4843  -5.3986  -5.3341  -5.3263  -5.3200
    -5.2815  -5.2481  -5.1676  -5.1653  -5.1623  -5.0706  -5.0574  -5.0432
    -4.9135  -4.9081  -4.8840  -4.8780  -4.8767  -4.7699  -4.6705  -4.5405
    -4.4660  -4.4596  -4.4426  -4.4096  -4.2488  -4.2391  -4.2216  -4.1317
    -4.0972  -4.0691  -4.0649  -4.0594  -3.8772  -3.8758  -3.8602  -3.8566
    -3.5547  -3.5467  -3.5438  -3.5334  -3.4447  -3.4398  -3.4352  -3.3859
    -3.3749  -3.3570  -3.3535  -3.3403  -3.2236  -3.2106  -3.1916  -3.1700
    -3.1612  -3.0876  -3.0552  -3.0521  -2.9373  -2.8942  -2.8327  -2.8182
    -2.7933  -2.7584  -2.5554  -2.4478  -0.4960  -0.3242  -0.3176  -0.3116
     0.1326   0.3971   0.4504   0.4560   0.4669   0.7487   0.8886   0.8965
     0.9138   0.9491   0.9624   0.9710   1.0034   1.0674   1.1500   1.1592
     1.2194   1.4664   1.4790   1.4887   1.6305   1.9863   2.1097   2.1157
     2.1203   2.1512   2.1583   2.1814   2.1872   2.2070   2.2700   2.5062
     2.5276   2.5356   2.5458   2.6625   2.9496   2.9671   3.0165   3.0647
     3.0788   3.0864   3.2024   3.2250   3.2535   3.2755   3.3199   3.3533
     3.3736   3.4043   3.4421   3.5047   3.5700   3.7345   3.7539   3.7685
     3.8179   3.9288   3.9480   4.0093   4.0847   4.1435   4.2396   4.2706
     4.2898   4.3322   4.3666   4.4359

          k = 0.3125 0.6856-0.2308 ( 96126 PWs)   bands (ev):

  -113.7099-113.7083-113.7068-113.7052 -71.1820 -71.1813 -71.1805 -71.1796
   -71.1790 -71.1785 -71.1771 -71.1766 -71.0116 -71.0099 -71.0079 -71.0069
   -24.3583 -22.0550 -19.1046 -18.1972 -18.1664 -18.1539 -18.0886 -17.8687
   -17.2904 -17.2888 -17.2834 -17.2810 -16.8746 -16.8606 -16.8566 -16.8544
   -16.7202 -16.6694 -16.6474 -16.5790 -16.5783 -16.5768 -16.5762 -16.5751
   -16.5734 -16.5700 -16.5687 -16.5627 -16.5353 -16.5228 -16.5143 -16.4016
   -16.0322 -15.7456 -15.5904 -15.5522 -15.5102 -15.4529 -15.3346 -15.3137
   -15.2701 -15.0417 -14.9543 -14.9105 -14.8729 -14.7978 -14.7642 -14.6748
   -14.6654 -14.6377 -14.4993 -13.1749 -12.2258 -12.1091 -12.0594 -11.8071
   -11.5003 -11.4026 -10.6495 -10.5210 -10.4183 -10.3706 -10.0881  -9.5144
    -9.2420  -9.0075  -8.9447  -8.9111  -8.6391  -8.4844  -8.4066  -8.3461
    -8.3285  -8.3115  -8.1285  -8.0867  -8.0635  -7.8989  -7.8925  -7.8690
    -7.8406  -7.8292  -7.7783  -7.7532  -7.7435  -7.4994  -7.2029  -7.1713
    -7.0558  -7.0187  -6.9927  -6.7193  -6.6044  -6.5394  -6.4866  -6.4756
    -6.4694  -6.2751  -6.0214  -5.8114  -5.7827  -5.7723  -5.7525  -5.6721
    -5.6627  -5.6576  -5.5715  -5.4848  -5.4025  -5.3425  -5.3314  -5.3099
    -5.2718  -5.2440  -5.1871  -5.1787  -5.1730  -5.0687  -5.0420  -5.0240
    -4.9377  -4.9250  -4.8748  -4.8547  -4.8384  -4.7703  -4.6701  -4.5405
    -4.4833  -4.4666  -4.4386  -4.4125  -4.2575  -4.2499  -4.1985  -4.1384
    -4.1067  -4.0820  -4.0668  -4.0597  -3.8761  -3.8680  -3.8597  -3.8273
    -3.5675  -3.5505  -3.5432  -3.5105  -3.4499  -3.4464  -3.4372  -3.3904
    -3.3815  -3.3576  -3.3457  -3.3395  -3.2366  -3.2050  -3.1965  -3.1753
    -3.1707  -3.0628  -3.0472  -3.0197  -2.9420  -2.8940  -2.8617  -2.8172
    -2.7717  -2.7533  -2.5672  -2.4492  -0.4912  -0.3376  -0.3208  -0.3066
     0.1532   0.4143   0.4465   0.4566   0.4678   0.7476   0.8670   0.8828
     0.9330   0.9387   0.9504   0.9799   1.0169   1.0924   1.0982   1.1305
     1.2880   1.4402   1.4799   1.4909   1.6517   1.9779   2.0438   2.0652
     2.1020   2.1590   2.1747   2.1807   2.2010   2.2488   2.2666   2.5085
     2.5193   2.5327   2.5883   2.6600   2.9107   2.9668   3.0233   3.0588
     3.0740   3.1238   3.1588   3.2139   3.2763   3.2951   3.3047   3.3320
     3.3650   3.4069   3.4312   3.5233   3.6096   3.7237   3.7585   3.7898
     3.8305   3.8809   3.9813   4.0344   4.0810   4.1894   4.2218   4.2741
     4.3072   4.3305   4.3552   4.4781

          k = 0.3125-0.3248-0.2308 ( 96096 PWs)   bands (ev):

  -113.7099-113.7083-113.7068-113.7052 -71.1820 -71.1813 -71.1805 -71.1796
   -71.1790 -71.1785 -71.1771 -71.1766 -71.0116 -71.0099 -71.0079 -71.0069
   -24.3583 -22.0550 -19.1046 -18.2216 -18.1590 -18.1278 -18.0958 -17.8687
   -17.2920 -17.2906 -17.2854 -17.2774 -16.8657 -16.8615 -16.8541 -16.8464
   -16.7666 -16.6632 -16.6139 -16.5844 -16.5787 -16.5771 -16.5768 -16.5753
   -16.5743 -16.5687 -16.5675 -16.5629 -16.5410 -16.5189 -16.4869 -16.4254
   -16.0322 -15.7455 -15.6755 -15.5934 -15.4644 -15.3714 -15.3705 -15.3040
   -15.2329 -15.0361 -14.9780 -14.9542 -14.8952 -14.7463 -14.7290 -14.6976
   -14.6692 -14.6185 -14.4993 -13.1749 -12.3279 -12.0849 -11.9632 -11.8414
   -11.5003 -11.4026 -10.6518 -10.6013 -10.4005 -10.2753 -10.1348  -9.5144
    -9.2421  -9.0572  -8.9426  -8.8474  -8.7189  -8.4844  -8.4065  -8.3236
    -8.3054  -8.2644  -8.1770  -8.0668  -8.0190  -7.9566  -7.8911  -7.8487
    -7.8399  -7.8020  -7.7487  -7.6946  -7.6890  -7.4995  -7.2837  -7.1309
    -7.0433  -7.0089  -6.9644  -6.7197  -6.6346  -6.6226  -6.5128  -6.5088
    -6.4748  -6.2751  -6.0227  -5.8819  -5.8282  -5.8083  -5.7628  -5.6944
    -5.6633  -5.6127  -5.5052  -5.4758  -5.4144  -5.3581  -5.3443  -5.3137
    -5.2531  -5.2267  -5.2198  -5.2033  -5.1969  -5.0577  -5.0079  -4.9985
    -4.9547  -4.9458  -4.8227  -4.8049  -4.7740  -4.7692  -4.6697  -4.5446
    -4.5178  -4.5093  -4.4321  -4.4138  -4.2732  -4.2629  -4.1804  -4.1783
    -4.1259  -4.1094  -4.0912  -4.0701  -3.8433  -3.8382  -3.8026  -3.7994
    -3.5856  -3.5742  -3.5118  -3.4981  -3.4696  -3.4618  -3.4236  -3.3913
    -3.3749  -3.3686  -3.3452  -3.3227  -3.2822  -3.2387  -3.2015  -3.1885
    -3.1530  -3.0231  -3.0137  -2.9458  -2.9382  -2.8939  -2.8629  -2.8194
    -2.7613  -2.7030  -2.6250  -2.4498  -0.4619  -0.4011  -0.3518  -0.2768
     0.2404   0.4112   0.4372   0.4912   0.5001   0.7492   0.7627   0.8655
     0.8963   0.9453   0.9691   0.9959   1.0083   1.0189   1.0826   1.2133
     1.3668   1.3736   1.4656   1.4928   1.7320   1.8880   1.9372   2.0005
     2.0840   2.1652   2.1827   2.2001   2.2098   2.2647   2.3035   2.4846
     2.5451   2.5677   2.6196   2.6695   2.9115   2.9779   2.9981   3.0120
     3.0423   3.0694   3.1605   3.2296   3.2382   3.2753   3.2998   3.3497
     3.3749   3.4284   3.4587   3.5574   3.6606   3.7377   3.7757   3.8091
     3.8704   3.9470   3.9830   3.9962   4.1178   4.1528   4.1793   4.2480
     4.3250   4.3529   4.3654   4.4035

          k = 0.3125-0.1804-0.2308 ( 96048 PWs)   bands (ev):

  -113.7099-113.7083-113.7068-113.7052 -71.1820 -71.1813 -71.1805 -71.1796
   -71.1790 -71.1785 -71.1771 -71.1766 -71.0116 -71.0099 -71.0079 -71.0069
   -24.3583 -22.0550 -19.1046 -18.2389 -18.1467 -18.1113 -18.1052 -17.8687
   -17.2942 -17.2918 -17.2894 -17.2718 -16.8645 -16.8535 -16.8498 -16.8389
   -16.8002 -16.6491 -16.5977 -16.5960 -16.5790 -16.5776 -16.5770 -16.5757
   -16.5747 -16.5677 -16.5661 -16.5628 -16.5438 -16.5106 -16.4576 -16.4562
   -16.0322 -15.7390 -15.7343 -15.6462 -15.4056 -15.3972 -15.3073 -15.3025
   -15.2109 -15.0271 -15.0193 -14.9542 -14.9348 -14.7237 -14.7134 -14.6779
   -14.6743 -14.6066 -14.4993 -13.1749 -12.4035 -12.0433 -11.8968 -11.8932
   -11.5003 -11.4026 -10.6711 -10.6387 -10.3650 -10.2063 -10.2013  -9.5144
    -9.2422  -9.0895  -8.9290  -8.8062  -8.8016  -8.4843  -8.4064  -8.2896
    -8.2580  -8.2203  -8.2184  -8.0668  -8.0055  -7.9445  -7.8908  -7.8817
    -7.8399  -7.7238  -7.7191  -7.6506  -7.6448  -7.4994  -7.3604  -7.0410
    -7.0306  -7.0072  -6.9935  -6.7202  -6.6774  -6.6417  -6.5807  -6.5774
    -6.4746  -6.2751  -6.0234  -5.9027  -5.8932  -5.8620  -5.7469  -5.7183
    -5.6637  -5.5962  -5.4937  -5.4343  -5.4116  -5.3780  -5.3579  -5.3347
    -5.2495  -5.2335  -5.2126  -5.1970  -5.1948  -5.0421  -5.0051  -4.9897
    -4.9541  -4.9459  -4.7788  -4.7673  -4.7582  -4.7363  -4.6691  -4.5529
    -4.5459  -4.5379  -4.4202  -4.4073  -4.2810  -4.2518  -4.2312  -4.2081
    -4.1433  -4.1318  -4.1120  -4.0925  -3.8164  -3.8145  -3.8095  -3.7034
    -3.6134  -3.5904  -3.5660  -3.5021  -3.4841  -3.4041  -3.3987  -3.3854
    -3.3686  -3.3552  -3.3426  -3.3241  -3.3219  -3.2354  -3.2265  -3.1882
    -3.1826  -2.9985  -2.9592  -2.9316  -2.9260  -2.8938  -2.8323  -2.7638
    -2.7191  -2.7112  -2.6427  -2.4503  -0.4876  -0.4034  -0.3962  -0.2635
     0.3525   0.3647   0.3898   0.5346   0.6045   0.6382   0.7777   0.8146
     0.8331   0.9295   0.9432   0.9494   1.0008   1.0423   1.0959   1.3167
     1.3249   1.3599   1.4751   1.5179   1.7896   1.8099   1.8844   1.9965
     2.0955   2.1684   2.1972   2.2210   2.2332   2.2644   2.3059   2.4653
     2.5804   2.5905   2.6156   2.6926   2.9189   2.9477   2.9867   3.0054
     3.0380   3.0577   3.1217   3.1736   3.2160   3.2355   3.2938   3.4093
     3.4409   3.4679   3.4935   3.6239   3.6420   3.7083   3.7899   3.8175
     3.8447   3.9565   4.0193   4.0486   4.0982   4.1543   4.1882   4.2694
     4.2955   4.3181   4.3352   4.3977

          k = 0.4375 0.7578-0.2308 ( 96082 PWs)   bands (ev):

  -113.7099-113.7083-113.7068-113.7052 -71.1820 -71.1813 -71.1805 -71.1796
   -71.1790 -71.1785 -71.1771 -71.1766 -71.0116 -71.0099 -71.0079 -71.0069
   -24.3583 -22.0550 -19.1046 -18.1939 -18.1878 -18.1293 -18.0948 -17.8687
   -17.2897 -17.2873 -17.2842 -17.2831 -16.8707 -16.8591 -16.8578 -16.8530
   -16.7146 -16.7102 -16.6131 -16.5827 -16.5786 -16.5765 -16.5758 -16.5753
   -16.5742 -16.5699 -16.5681 -16.5630 -16.5344 -16.5324 -16.4876 -16.4194
   -16.0322 -15.7351 -15.6555 -15.4866 -15.4834 -15.4796 -15.3897 -15.2703
   -15.2663 -15.0329 -14.9660 -14.9541 -14.8181 -14.8066 -14.7521 -14.7021
   -14.6463 -14.6414 -14.4994 -13.1749 -12.2052 -12.2021 -11.9649 -11.8329
   -11.5003 -11.4026 -10.6497 -10.5071 -10.5002 -10.2735 -10.1211  -9.5144
    -9.2421  -9.0007  -8.9991  -8.8364  -8.6845  -8.4844  -8.4066  -8.3331
    -8.3110  -8.3036  -8.2259  -8.0675  -7.9687  -7.9079  -7.8969  -7.8716
    -7.8451  -7.8395  -7.7975  -7.7216  -7.7157  -7.4994  -7.1625  -7.1536
    -7.1423  -7.0118  -6.9708  -6.7195  -6.6105  -6.5925  -6.4791  -6.4735
    -6.4604  -6.2751  -6.0223  -5.8657  -5.8157  -5.7544  -5.7133  -5.6938
    -5.6918  -5.5902  -5.5745  -5.4859  -5.3939  -5.3630  -5.3297  -5.3022
    -5.2572  -5.2410  -5.2156  -5.2023  -5.1866  -5.0762  -5.0604  -4.9766
    -4.9365  -4.8958  -4.8830  -4.8304  -4.8128  -4.7711  -4.6697  -4.5381
    -4.5091  -4.4758  -4.4533  -4.4145  -4.2597  -4.2205  -4.1956  -4.1738
    -4.1096  -4.0951  -4.0610  -4.0473  -3.8900  -3.8806  -3.8487  -3.8079
    -3.5412  -3.5404  -3.5362  -3.5077  -3.4541  -3.4343  -3.4225  -3.3925
    -3.3862  -3.3745  -3.3677  -3.3501  -3.2572  -3.1998  -3.1856  -3.1694
    -3.1495  -3.0736  -3.0411  -2.9836  -2.9663  -2.8939  -2.8273  -2.8053
    -2.7877  -2.7598  -2.6155  -2.4492  -0.4700  -0.3679  -0.3126  -0.3052
     0.2047   0.3747   0.4713   0.4788   0.4947   0.7342   0.7811   0.8858
     0.9214   0.9415   0.9674   0.9896   0.9992   1.0695   1.1582   1.2117
     1.3115   1.3728   1.4376   1.5080   1.7056   1.9255   1.9665   2.0303
     2.0609   2.1702   2.1800   2.1952   2.2287   2.2521   2.2651   2.5083
     2.5115   2.5340   2.5902   2.6590   2.8833   2.9976   3.0114   3.0230
     3.0933   3.1290   3.1744   3.2173   3.2539   3.2900   3.2994   3.3212
     3.3590   3.4033   3.4322   3.5135   3.6376   3.7561   3.7929   3.8404
     3.8697   3.8760   3.9345   3.9754   4.1320   4.1595   4.1775   4.2685
     4.2916   4.3639   4.4402   4.4884

          k = 0.4375-0.2526-0.2308 ( 96066 PWs)   bands (ev):

  -113.7099-113.7083-113.7068-113.7052 -71.1820 -71.1813 -71.1805 -71.1796
   -71.1790 -71.1785 -71.1771 -71.1766 -71.0116 -71.0099 -71.0079 -71.0069
   -24.3583 -22.0550 -19.1046 -18.2102 -18.1774 -18.1117 -18.1057 -17.8687
   -17.2893 -17.2885 -17.2863 -17.2809 -16.8645 -16.8607 -16.8584 -16.8488
   -16.7473 -16.6929 -16.5944 -16.5922 -16.5787 -16.5766 -16.5760 -16.5754
   -16.5745 -16.5696 -16.5673 -16.5632 -16.5387 -16.5285 -16.4534 -16.4522
   -16.0323 -15.7122 -15.7094 -15.5356 -15.4378 -15.4322 -15.4166 -15.2751
   -15.2425 -15.0132 -15.0080 -14.9542 -14.8487 -14.7595 -14.7332 -14.7217
   -14.6536 -14.6293 -14.4994 -13.1749 -12.2806 -12.1545 -11.8900 -11.8865
   -11.5003 -11.4026 -10.6504 -10.5665 -10.4634 -10.1916 -10.1865  -9.5144
    -9.2421  -9.0373  -8.9797  -8.7671  -8.7631  -8.4844  -8.4065  -8.3070
    -8.2941  -8.2791  -8.2746  -8.0675  -7.9409  -7.9171  -7.8988  -7.8748
    -7.8410  -7.8199  -7.8009  -7.6975  -7.6901  -7.4994  -7.2412  -7.1131
    -7.0499  -7.0430  -6.9979  -6.7197  -6.6289  -6.6129  -6.4850  -6.4824
    -6.4730  -6.2751  -6.0228  -5.8707  -5.8637  -5.7461  -5.7417  -5.7307
    -5.6372  -5.6079  -5.5285  -5.4845  -5.3958  -5.3708  -5.3254  -5.3201
    -5.2511  -5.2293  -5.2159  -5.2139  -5.2102  -5.0769  -5.0498  -4.9644
    -4.9411  -4.9129  -4.8351  -4.8097  -4.7909  -4.7711  -4.6694  -4.5363
    -4.5262  -4.5036  -4.4509  -4.4151  -4.2358  -4.2314  -4.2206  -4.1846
    -4.1129  -4.1092  -4.0671  -4.0544  -3.8753  -3.8535  -3.8220  -3.8197
    -3.5520  -3.5398  -3.5199  -3.5116  -3.4627  -3.4275  -3.4133  -3.4021
    -3.3853  -3.3648  -3.3614  -3.3221  -3.3108  -3.2144  -3.2018  -3.1731
    -3.1349  -3.0516  -3.0026  -2.9825  -2.9620  -2.8939  -2.8699  -2.7653
    -2.7550  -2.7094  -2.7040  -2.4493  -0.4239  -0.4172  -0.3509  -0.2754
     0.2970   0.3020   0.4683   0.5156   0.5821   0.6039   0.8226   0.8469
     0.9206   0.9340   0.9498   0.9683   1.0258   1.0539   1.2200   1.2658
     1.2875   1.3158   1.4671   1.4809   1.7964   1.8119   1.9395   1.9990
     2.0557   2.1703   2.1883   2.1964   2.2197   2.2640   2.2800   2.5090
     2.5229   2.5325   2.6093   2.6490   2.8857   2.9891   3.0160   3.0254
     3.0632   3.0911   3.1728   3.2257   3.2378   3.2821   3.2870   3.3429
     3.3594   3.4097   3.4681   3.5496   3.6215   3.7583   3.8076   3.8339
     3.8544   3.9337   3.9725   3.9929   4.0500   4.1551   4.2320   4.2705
     4.2816   4.3208   4.4157   4.4579

          k =-0.0625 0.1083 0.2308 ( 96006 PWs)   bands (ev):

  -113.7099-113.7083-113.7068-113.7052 -71.1820 -71.1813 -71.1805 -71.1796
   -71.1790 -71.1785 -71.1771 -71.1766 -71.0116 -71.0099 -71.0079 -71.0069
   -24.3583 -22.0550 -19.1046 -18.2690 -18.1124 -18.1108 -18.1040 -17.8687
   -17.2988 -17.2977 -17.2960 -17.2583 -16.8691 -16.8597 -16.8296 -16.8252
   -16.8239 -16.6121 -16.6108 -16.6046 -16.5795 -16.5791 -16.5783 -16.5762
   -16.5755 -16.5652 -16.5633 -16.5620 -16.5473 -16.4726 -16.4707 -16.4626
   -16.0322 -15.7830 -15.7727 -15.7711 -15.3458 -15.3334 -15.3303 -15.1881
   -15.1759 -15.0515 -15.0422 -15.0386 -14.9542 -14.7057 -14.6980 -14.6935
   -14.5910 -14.5804 -14.4991 -13.1750 -12.5443 -11.9238 -11.9204 -11.9030
   -11.5003 -11.4026 -10.7609 -10.6456 -10.2501 -10.2497 -10.2267  -9.5145
    -9.2425  -9.1425  -8.8801  -8.8767  -8.8625  -8.4842  -8.4062  -8.1969
    -8.1879  -8.1730  -8.1217  -8.0909  -8.0625  -7.8819  -7.8720  -7.8607
    -7.8396  -7.5952  -7.5870  -7.5847  -7.5307  -7.5028  -7.4839  -7.0164
    -6.9785  -6.9506  -6.9384  -6.7927  -6.7910  -6.7761  -6.7713  -6.7161
    -6.4745  -6.2752  -6.0286  -5.9798  -5.9750  -5.9719  -5.7184  -5.7137
    -5.7062  -5.6371  -5.4937  -5.4100  -5.4059  -5.3890  -5.3624  -5.3130
    -5.2913  -5.2499  -5.1845  -5.1811  -5.1757  -4.9883  -4.9792  -4.9704
    -4.9408  -4.9314  -4.7694  -4.7022  -4.6910  -4.6842  -4.6616  -4.5548
    -4.5515  -4.5476  -4.4179  -4.3481  -4.2877  -4.2848  -4.2797  -4.2531
    -4.2153  -4.2106  -4.1891  -4.1804  -3.8300  -3.8264  -3.8219  -3.6651
    -3.6636  -3.6556  -3.5468  -3.4888  -3.4654  -3.4090  -3.3874  -3.3779
    -3.3681  -3.3343  -3.3295  -3.3190  -3.2688  -3.2557  -3.2459  -3.1698
    -3.1310  -2.9412  -2.9313  -2.9245  -2.8937  -2.7720  -2.7573  -2.7507
    -2.7216  -2.5613  -2.5220  -2.4529  -0.7484  -0.3657  -0.3405  -0.3370
     0.2205   0.4654   0.5064   0.5139   0.5731   0.5864   0.5945   0.7914
     0.8146   0.8192   0.9891   1.0105   1.0139   1.0201   1.0226   1.3050
     1.4452   1.4606   1.4784   1.5431   1.7902   1.8090   1.8160   1.9979
     2.1551   2.2038   2.2406   2.2809   2.3217   2.3253   2.3437   2.3558
     2.5146   2.6413   2.6567   2.6640   2.9073   2.9882   3.0049   3.0084
     3.0207   3.0531   3.0772   3.1495   3.1728   3.2107   3.2764   3.4490
     3.4740   3.4951   3.5655   3.6263   3.7164   3.7498   3.7869   3.8325
     3.9058   3.9504   4.0105   4.0420   4.0778   4.1397   4.1835   4.2032
     4.2147   4.2510   4.2839   4.3202

          k = 0.1250 0.0000-0.2308 ( 96006 PWs)   bands (ev):

  -113.7099-113.7083-113.7068-113.7052 -71.1820 -71.1813 -71.1805 -71.1796
   -71.1790 -71.1785 -71.1771 -71.1766 -71.0116 -71.0099 -71.0079 -71.0069
   -24.3583 -22.0550 -19.1046 -18.2690 -18.1130 -18.1099 -18.1042 -17.8687
   -17.2988 -17.2978 -17.2958 -17.2584 -16.8687 -16.8600 -16.8298 -16.8252
   -16.8238 -16.6118 -16.6106 -16.6051 -16.5795 -16.5791 -16.5782 -16.5762
   -16.5755 -16.5653 -16.5633 -16.5620 -16.5473 -16.4729 -16.4704 -16.4625
   -16.0322 -15.7834 -15.7725 -15.7710 -15.3461 -15.3331 -15.3303 -15.1885
   -15.1755 -15.0525 -15.0411 -15.0387 -14.9542 -14.7051 -14.6979 -14.6941
   -14.5895 -14.5820 -14.4990 -13.1750 -12.5443 -11.9240 -11.9208 -11.9024
   -11.5002 -11.4026 -10.7610 -10.6456 -10.2516 -10.2474 -10.2275  -9.5145
    -9.2425  -9.1425  -8.8803  -8.8761  -8.8629  -8.4842  -8.4063  -8.1962
    -8.1884  -8.1735  -8.1216  -8.0903  -8.0625  -7.8811  -7.8716  -7.8624
    -7.8395  -7.5963  -7.5870  -7.5835  -7.5349  -7.4980  -7.4845  -7.0163
    -6.9799  -6.9470  -6.9399  -6.7949  -6.7915  -6.7736  -6.7719  -6.7161
    -6.4744  -6.2752  -6.0279  -5.9822  -5.9761  -5.9692  -5.7191  -5.7134
    -5.7057  -5.6372  -5.4934  -5.4089  -5.4041  -5.3922  -5.3629  -5.3128
    -5.2918  -5.2490  -5.1848  -5.1814  -5.1755  -4.9867  -4.9806  -4.9706
[...]
     3.8726   3.9348   3.9455   4.0267   4.1490   4.1789   4.2057   4.2395
     4.2841   4.3122   4.3853   4.4289

          k =-0.1250 0.4330 0.2308 ( 96096 PWs)   bands (ev):

  -113.7099-113.7083-113.7068-113.7052 -71.1820 -71.1813 -71.1805 -71.1796
   -71.1790 -71.1785 -71.1771 -71.1766 -71.0116 -71.0099 -71.0079 -71.0069
   -24.3583 -22.0550 -19.1046 -18.2216 -18.1592 -18.1276 -18.0959 -17.8687
   -17.2922 -17.2905 -17.2854 -17.2774 -16.8657 -16.8613 -16.8533 -16.8470
   -16.7671 -16.6627 -16.6147 -16.5839 -16.5787 -16.5781 -16.5771 -16.5747
   -16.5736 -16.5696 -16.5664 -16.5633 -16.5411 -16.5191 -16.4869 -16.4248
   -16.0322 -15.7478 -15.6710 -15.5963 -15.4609 -15.3790 -15.3694 -15.2982
   -15.2350 -15.0382 -14.9696 -14.9542 -14.9028 -14.7452 -14.7283 -14.7029
   -14.6641 -14.6187 -14.4992 -13.1749 -12.3278 -12.0849 -11.9633 -11.8415
   -11.5003 -11.4026 -10.6517 -10.6015 -10.4007 -10.2753 -10.1347  -9.5144
    -9.2420  -9.0577  -8.9434  -8.8485  -8.7156  -8.4844  -8.4064  -8.3193
    -8.2980  -8.2618  -8.2135  -8.0673  -7.9702  -7.9599  -7.8917  -7.8704
    -7.8400  -7.8110  -7.7407  -7.6931  -7.6898  -7.4995  -7.2836  -7.1319
    -7.0409  -7.0062  -6.9770  -6.7193  -6.6334  -6.5897  -6.5412  -6.5078
    -6.4750  -6.2750  -6.0216  -5.8781  -5.8407  -5.8060  -5.7489  -5.7275
    -5.6350  -5.6131  -5.5071  -5.4764  -5.3944  -5.3805  -5.3345  -5.3291
    -5.2616  -5.2290  -5.2038  -5.1925  -5.1888  -5.0579  -5.0557  -4.9640
    -4.9585  -4.9483  -4.8116  -4.7961  -4.7910  -4.7703  -4.6711  -4.5397
    -4.5272  -4.5186  -4.4229  -4.4079  -4.2594  -4.2518  -4.2009  -4.1863
    -4.1297  -4.1006  -4.0847  -4.0768  -3.8427  -3.8299  -3.8068  -3.8013
    -3.5910  -3.5556  -3.5303  -3.5062  -3.5017  -3.4169  -3.4058  -3.3914
    -3.3870  -3.3785  -3.3541  -3.2945  -3.2598  -3.2520  -3.2431  -3.1952
    -3.1302  -3.0129  -2.9724  -2.9564  -2.9475  -2.9276  -2.8937  -2.7989
    -2.7622  -2.6875  -2.6283  -2.4492  -0.4583  -0.4020  -0.3544  -0.2765
     0.2442   0.3963   0.4342   0.5049   0.5159   0.7248   0.7727   0.8720
     0.9004   0.9273   0.9541   0.9662   0.9780   1.0646   1.1537   1.1970
     1.3064   1.4124   1.4476   1.5160   1.7223   1.9041   1.9505   1.9893
     2.0780   2.1676   2.1874   2.1966   2.2174   2.2646   2.2822   2.5128
     2.5586   2.5673   2.6115   2.6310   2.9166   2.9754   2.9857   3.0196
     3.0685   3.1199   3.1646   3.1856   3.2288   3.2526   3.2857   3.3063
     3.4323   3.4638   3.5139   3.5415   3.6360   3.7076   3.7321   3.7746
     3.8313   3.9334   3.9753   4.0210   4.1057   4.2150   4.2341   4.2461
     4.2881   4.3234   4.3963   4.4286

          k =-0.3125-0.1804 0.2308 ( 96048 PWs)   bands (ev):

  -113.7099-113.7083-113.7068-113.7052 -71.1820 -71.1813 -71.1805 -71.1796
   -71.1790 -71.1785 -71.1771 -71.1766 -71.0116 -71.0099 -71.0079 -71.0069
   -24.3583 -22.0550 -19.1046 -18.2389 -18.1470 -18.1085 -18.1077 -17.8687
   -17.2948 -17.2911 -17.2894 -17.2719 -16.8636 -16.8540 -16.8500 -16.8386
   -16.8007 -16.6491 -16.5975 -16.5963 -16.5788 -16.5784 -16.5774 -16.5750
   -16.5743 -16.5684 -16.5645 -16.5639 -16.5438 -16.5111 -16.4578 -16.4554
   -16.0322 -15.7395 -15.7345 -15.6458 -15.4057 -15.3966 -15.3074 -15.3028
   -15.2110 -15.0265 -15.0196 -14.9544 -14.9349 -14.7209 -14.7174 -14.6791
   -14.6728 -14.6054 -14.4992 -13.1749 -12.4036 -12.0436 -11.8963 -11.8933
   -11.5002 -11.4026 -10.6724 -10.6376 -10.3647 -10.2055 -10.2024  -9.5145
    -9.2422  -9.0899  -8.9310  -8.8062  -8.7994  -8.4843  -8.4064  -8.2897
    -8.2576  -8.2205  -8.2177  -8.0639  -8.0054  -7.9442  -7.8937  -7.8817
    -7.8396  -7.7241  -7.7189  -7.6511  -7.6478  -7.4988  -7.3584  -7.0402
    -7.0302  -7.0133  -6.9872  -6.7198  -6.6788  -6.6413  -6.5804  -6.5782
    -6.4744  -6.2753  -6.0216  -5.9059  -5.8917  -5.8621  -5.7474  -5.7180
    -5.6638  -5.5962  -5.4894  -5.4364  -5.4095  -5.3836  -5.3605  -5.3350
    -5.2545  -5.2281  -5.2093  -5.1971  -5.1935  -5.0429  -5.0031  -4.9894
    -4.9554  -4.9480  -4.7860  -4.7653  -4.7527  -4.7363  -4.6705  -4.5550
    -4.5453  -4.5384  -4.4215  -4.3998  -4.2795  -4.2568  -4.2332  -4.2110
    -4.1422  -4.1276  -4.1118  -4.0918  -3.8160  -3.8139  -3.8107  -3.7009
    -3.6128  -3.5909  -3.5644  -3.5019  -3.4832  -3.4120  -3.3916  -3.3861
    -3.3675  -3.3609  -3.3421  -3.3219  -3.3169  -3.2390  -3.2279  -3.1860
    -3.1852  -2.9977  -2.9619  -2.9317  -2.9262  -2.8936  -2.8327  -2.7621
    -2.7213  -2.7122  -2.6423  -2.4479  -0.4878  -0.4043  -0.3948  -0.2638
     0.3519   0.3656   0.3902   0.5345   0.6066   0.6379   0.7791   0.8134
     0.8317   0.9294   0.9448   0.9489   1.0017   1.0421   1.0954   1.3163
     1.3248   1.3602   1.4729   1.5160   1.7876   1.8080   1.8911   1.9995
     2.0948   2.1641   2.2097   2.2233   2.2293   2.2669   2.3030   2.4707
     2.5741   2.5850   2.6131   2.6934   2.9257   2.9472   2.9834   3.0123
     3.0457   3.0714   3.1245   3.1795   3.2121   3.2327   3.2938   3.3927
     3.4542   3.4661   3.5035   3.6126   3.6556   3.7013   3.7559   3.7944
     3.8595   3.9324   4.0089   4.0481   4.0790   4.1528   4.1769   4.2586
     4.2831   4.3253   4.3475   4.3649

          k = 0.0000-0.3608-0.2308 ( 96048 PWs)   bands (ev):

  -113.7099-113.7083-113.7068-113.7052 -71.1820 -71.1813 -71.1805 -71.1796
   -71.1790 -71.1785 -71.1771 -71.1766 -71.0116 -71.0099 -71.0079 -71.0069
   -24.3583 -22.0550 -19.1046 -18.2389 -18.1470 -18.1098 -18.1065 -17.8687
   -17.2945 -17.2908 -17.2901 -17.2718 -16.8640 -16.8531 -16.8505 -16.8386
   -16.8005 -16.6495 -16.5973 -16.5962 -16.5789 -16.5782 -16.5778 -16.5749
   -16.5741 -16.5685 -16.5647 -16.5636 -16.5438 -16.5110 -16.4580 -16.4552
   -16.0322 -15.7389 -15.7349 -15.6459 -15.4048 -15.3975 -15.3069 -15.3031
   -15.2114 -15.0261 -15.0188 -14.9543 -14.9359 -14.7223 -14.7170 -14.6800
   -14.6722 -14.6043 -14.4992 -13.1749 -12.4034 -12.0431 -11.8966 -11.8936
   -11.5003 -11.4026 -10.6708 -10.6390 -10.3654 -10.2058 -10.2015  -9.5145
    -9.2421  -9.0899  -8.9312  -8.8048  -8.8004  -8.4843  -8.4063  -8.2896
    -8.2578  -8.2200  -8.2185  -8.0666  -8.0049  -7.9438  -7.8927  -7.8808
    -7.8395  -7.7231  -7.7199  -7.6495  -7.6462  -7.4995  -7.3606  -7.0411
    -7.0287  -7.0121  -6.9917  -6.7196  -6.6783  -6.6421  -6.5788  -6.5778
    -6.4748  -6.2750  -6.0222  -5.9063  -5.8933  -5.8597  -5.7465  -5.7192
    -5.6644  -5.5953  -5.4955  -5.4345  -5.4071  -5.3839  -5.3549  -5.3354
    -5.2565  -5.2327  -5.2074  -5.1953  -5.1921  -5.0418  -5.0069  -4.9887
    -4.9549  -4.9467  -4.7797  -4.7698  -4.7546  -4.7379  -4.6713  -4.5521
    -4.5479  -4.5362  -4.4215  -4.4049  -4.2809  -4.2519  -4.2304  -4.2086
    -4.1420  -4.1318  -4.1113  -4.0911  -3.8168  -3.8149  -3.8100  -3.7014
    -3.6136  -3.5904  -3.5651  -3.5015  -3.4830  -3.4051  -3.3928  -3.3888
    -3.3675  -3.3599  -3.3418  -3.3246  -3.3210  -3.2382  -3.2272  -3.1862
    -3.1855  -2.9976  -2.9627  -2.9307  -2.9263  -2.8938  -2.8332  -2.7633
    -2.7200  -2.7098  -2.6415  -2.4491  -0.4883  -0.4013  -0.3954  -0.2651
     0.3528   0.3657   0.3895   0.5322   0.6040   0.6362   0.7799   0.8149
     0.8330   0.9279   0.9447   0.9506   1.0023   1.0428   1.0977   1.3163
     1.3241   1.3576   1.4731   1.5170   1.7875   1.8086   1.8950   1.9906
     2.0906   2.1701   2.1944   2.2267   2.2362   2.2648   2.3050   2.4683
     2.5785   2.5915   2.6180   2.6932   2.9192   2.9458   2.9816   3.0117
     3.0497   3.0564   3.1220   3.1792   3.2114   3.2377   3.2992   3.3934
     3.4511   3.4666   3.5065   3.5980   3.6732   3.6966   3.7397   3.7795
     3.8626   3.9073   4.0385   4.0603   4.1066   4.1565   4.1869   4.2789
     4.2960   4.3161   4.3565   4.3679

          k =-0.4375 0.7578 0.2308 ( 96082 PWs)   bands (ev):

  -113.7099-113.7083-113.7068-113.7052 -71.1820 -71.1813 -71.1805 -71.1796
   -71.1790 -71.1785 -71.1771 -71.1766 -71.0116 -71.0099 -71.0079 -71.0069
   -24.3583 -22.0550 -19.1046 -18.1913 -18.1906 -18.1289 -18.0950 -17.8687
   -17.2900 -17.2867 -17.2849 -17.2827 -16.8709 -16.8597 -16.8560 -16.8534
   -16.7137 -16.7119 -16.6130 -16.5826 -16.5782 -16.5779 -16.5758 -16.5754
   -16.5725 -16.5707 -16.5674 -16.5637 -16.5339 -16.5332 -16.4873 -16.4192
   -16.0322 -15.7355 -15.6559 -15.4861 -15.4835 -15.4791 -15.3896 -15.2717
   -15.2653 -15.0328 -14.9656 -14.9543 -14.8152 -14.8106 -14.7521 -14.7032
   -14.6469 -14.6388 -14.4993 -13.1749 -12.2048 -12.2029 -11.9647 -11.8327
   -11.5002 -11.4026 -10.6506 -10.5052 -10.5011 -10.2736 -10.1212  -9.5145
    -9.2420  -9.0014  -9.0004  -8.8355  -8.6838  -8.4844  -8.4067  -8.3325
    -8.3117  -8.3027  -8.2252  -8.0642  -7.9699  -7.9081  -7.8965  -7.8750
    -7.8481  -7.8342  -7.7986  -7.7224  -7.7179  -7.4991  -7.1602  -7.1548
    -7.1418  -7.0063  -6.9750  -6.7189  -6.6113  -6.5925  -6.4839  -6.4706
    -6.4591  -6.2754  -6.0204  -5.8669  -5.8153  -5.7554  -5.7139  -5.6939
    -5.6915  -5.5894  -5.5736  -5.4833  -5.3979  -5.3665  -5.3319  -5.3033
    -5.2550  -5.2421  -5.2168  -5.1962  -5.1860  -5.0755  -5.0603  -4.9772
    -4.9373  -4.8954  -4.8840  -4.8302  -4.8157  -4.7693  -4.6708  -4.5401
    -4.5148  -4.4709  -4.4499  -4.4107  -4.2627  -4.2218  -4.1956  -4.1784
    -4.1073  -4.0906  -4.0599  -4.0488  -3.8878  -3.8798  -3.8483  -3.8080
    -3.5400  -3.5384  -3.5377  -3.5085  -3.4527  -3.4334  -3.4190  -3.3990
    -3.3845  -3.3763  -3.3662  -3.3501  -3.2571  -3.2005  -3.1856  -3.1706
    -3.1498  -3.0762  -3.0420  -2.9825  -2.9658  -2.8943  -2.8274  -2.8059
    -2.7892  -2.7579  -2.6172  -2.4465  -0.4697  -0.3676  -0.3138  -0.3047
     0.2051   0.3752   0.4707   0.4798   0.4945   0.7348   0.7821   0.8858
     0.9205   0.9409   0.9687   0.9924   0.9974   1.0688   1.1575   1.2152
     1.3092   1.3723   1.4362   1.5053   1.7028   1.9187   1.9916   2.0311
     2.0484   2.1712   2.1803   2.1967   2.2283   2.2487   2.2762   2.5035
     2.5062   2.5409   2.5919   2.6423   2.9380   2.9942   3.0022   3.0288
     3.0906   3.1268   3.1665   3.2020   3.2471   3.2863   3.3042   3.3223
     3.3696   3.4193   3.4428   3.5037   3.6219   3.7420   3.8082   3.8359
     3.8602   3.8728   3.9233   3.9748   4.0884   4.1598   4.1854   4.2185
     4.2740   4.3524   4.4165   4.4611

          k = 0.8750 0.0000-0.2308 ( 96082 PWs)   bands (ev):

  -113.7099-113.7083-113.7068-113.7052 -71.1820 -71.1813 -71.1805 -71.1796
   -71.1790 -71.1785 -71.1771 -71.1766 -71.0116 -71.0099 -71.0079 -71.0069
   -24.3583 -22.0550 -19.1046 -18.1925 -18.1893 -18.1290 -18.0949 -17.8687
   -17.2902 -17.2863 -17.2849 -17.2828 -16.8706 -16.8598 -16.8558 -16.8538
   -16.7141 -16.7116 -16.6130 -16.5825 -16.5784 -16.5778 -16.5761 -16.5750
   -16.5728 -16.5709 -16.5671 -16.5635 -16.5344 -16.5327 -16.4873 -16.4191
   -16.0322 -15.7353 -15.6558 -15.4858 -15.4829 -15.4799 -15.3896 -15.2709
   -15.2668 -15.0323 -14.9649 -14.9541 -14.8171 -14.8100 -14.7528 -14.7041
   -14.6460 -14.6380 -14.4992 -13.1749 -12.2051 -12.2020 -11.9650 -11.8329
   -11.5003 -11.4026 -10.6496 -10.5059 -10.5019 -10.2733 -10.1210  -9.5145
    -9.2419  -9.0017  -9.0003  -8.8353  -8.6835  -8.4844  -8.4065  -8.3329
    -8.3109  -8.3037  -8.2256  -8.0673  -7.9672  -7.9077  -7.8961  -7.8731
    -7.8463  -7.8391  -7.7982  -7.7207  -7.7162  -7.4994  -7.1611  -7.1555
    -7.1432  -7.0091  -6.9732  -6.7191  -6.6110  -6.5933  -6.4780  -6.4739
    -6.4601  -6.2749  -6.0209  -5.8678  -5.8154  -5.7561  -5.7142  -5.6927
    -5.6902  -5.5910  -5.5745  -5.4858  -5.3949  -5.3638  -5.3296  -5.3015
    -5.2669  -5.2349  -5.2144  -5.1947  -5.1861  -5.0784  -5.0616  -4.9760
    -4.9363  -4.8955  -4.8839  -4.8304  -4.8151  -4.7712  -4.6712  -4.5383
    -4.5120  -4.4720  -4.4550  -4.4117  -4.2582  -4.2228  -4.1957  -4.1748
    -4.1076  -4.0934  -4.0616  -4.0451  -3.8895  -3.8782  -3.8495  -3.8093
    -3.5422  -3.5389  -3.5361  -3.5084  -3.4543  -3.4321  -3.4194  -3.3915
    -3.3848  -3.3759  -3.3717  -3.3510  -3.2564  -3.2004  -3.1865  -3.1708
    -3.1515  -3.0759  -3.0425  -2.9825  -2.9655  -2.8941  -2.8271  -2.8047
    -2.7900  -2.7571  -2.6149  -2.4483  -0.4688  -0.3663  -0.3142  -0.3056
     0.2054   0.3754   0.4694   0.4803   0.4911   0.7322   0.7831   0.8892
     0.9212   0.9414   0.9683   0.9915   0.9974   1.0689   1.1573   1.2143
     1.3126   1.3711   1.4351   1.5061   1.7038   1.9231   1.9830   2.0264
     2.0453   2.1674   2.1840   2.2031   2.2265   2.2498   2.2691   2.5086
     2.5175   2.5378   2.5887   2.6548   2.9043   2.9960   3.0042   3.0302
     3.0880   3.1318   3.1747   3.2071   3.2652   3.2849   3.2914   3.3289
     3.3497   3.4227   3.4488   3.4940   3.6049   3.7280   3.7915   3.8439
     3.8583   3.8809   3.9185   3.9694   4.0934   4.1632   4.2155   4.2703
     4.2839   4.3769   4.4406   4.4663

          k =-0.4375-0.2526 0.2308 ( 96066 PWs)   bands (ev):

  -113.7099-113.7083-113.7068-113.7052 -71.1820 -71.1813 -71.1805 -71.1796
   -71.1790 -71.1785 -71.1771 -71.1766 -71.0116 -71.0099 -71.0079 -71.0069
   -24.3583 -22.0550 -19.1046 -18.2100 -18.1778 -18.1090 -18.1082 -17.8687
   -17.2902 -17.2878 -17.2860 -17.2811 -16.8650 -16.8608 -16.8572 -16.8486
   -16.7477 -16.6933 -16.5938 -16.5928 -16.5783 -16.5780 -16.5764 -16.5751
   -16.5729 -16.5704 -16.5658 -16.5646 -16.5387 -16.5288 -16.4535 -16.4514
   -16.0322 -15.7130 -15.7094 -15.5352 -15.4377 -15.4318 -15.4166 -15.2756
   -15.2425 -15.0129 -15.0078 -14.9543 -14.8489 -14.7606 -14.7304 -14.7256
   -14.6529 -14.6277 -14.4993 -13.1749 -12.2808 -12.1548 -11.8896 -11.8866
   -11.5002 -11.4026 -10.6516 -10.5655 -10.4630 -10.1910 -10.1874  -9.5145
    -9.2420  -9.0381  -8.9811  -8.7668  -8.7617  -8.4844  -8.4066  -8.3072
    -8.2934  -8.2788  -8.2737  -8.0643  -7.9410  -7.9174  -7.8984  -7.8781
    -7.8404  -7.8198  -7.8018  -7.6986  -7.6923  -7.4990  -7.2395  -7.1132
    -7.0474  -7.0419  -6.9994  -6.7190  -6.6303  -6.6127  -6.4892  -6.4826
    -6.4693  -6.2754  -6.0205  -5.8729  -5.8630  -5.7476  -5.7410  -5.7312
    -5.6371  -5.6073  -5.5256  -5.4834  -5.3971  -5.3781  -5.3272  -5.3210
    -5.2545  -5.2243  -5.2162  -5.2119  -5.2067  -5.0771  -5.0483  -4.9643
    -4.9426  -4.9138  -4.8352  -4.8115  -4.7935  -4.7678  -4.6712  -4.5391
    -4.5314  -4.4984  -4.4463  -4.4113  -4.2397  -4.2305  -4.2249  -4.1875
    -4.1130  -4.1021  -4.0667  -4.0543  -3.8749  -3.8509  -3.8220  -3.8190
    -3.5510  -3.5406  -3.5175  -3.5119  -3.4621  -3.4305  -3.4076  -3.4020
    -3.3847  -3.3745  -3.3585  -3.3212  -3.3095  -3.2147  -3.2035  -3.1735
    -3.1351  -3.0544  -3.0017  -2.9837  -2.9618  -2.8948  -2.8696  -2.7675
    -2.7504  -2.7127  -2.7045  -2.4465  -0.4246  -0.4158  -0.3513  -0.2757
     0.2970   0.3029   0.4684   0.5150   0.5839   0.6034   0.8244   0.8472
     0.9207   0.9336   0.9476   0.9690   1.0274   1.0545   1.2204   1.2645
     1.2880   1.3167   1.4636   1.4780   1.7926   1.8074   1.9585   2.0014
     2.0468   2.1708   2.1893   2.1996   2.2227   2.2644   2.2845   2.5052
     2.5161   2.5376   2.6103   2.6353   2.9309   2.9851   3.0177   3.0290
     3.0607   3.1050   3.1608   3.2111   3.2348   3.2679   3.2907   3.3377
     3.3726   3.4483   3.4619   3.5432   3.6149   3.7018   3.8108   3.8519
     3.8573   3.9145   3.9720   3.9920   4.0071   4.1559   4.2252   4.2453
     4.2786   4.3097   4.3898   4.4240

          k = 0.0000-0.5052-0.2308 ( 96066 PWs)   bands (ev):

  -113.7099-113.7083-113.7068-113.7052 -71.1820 -71.1813 -71.1805 -71.1796
   -71.1790 -71.1785 -71.1771 -71.1766 -71.0116 -71.0099 -71.0079 -71.0069
   -24.3583 -22.0550 -19.1046 -18.2101 -18.1777 -18.1102 -18.1070 -17.8687
   -17.2901 -17.2875 -17.2866 -17.2808 -16.8641 -16.8618 -16.8571 -16.8488
   -16.7476 -16.6934 -16.5935 -16.5929 -16.5785 -16.5779 -16.5766 -16.5747
   -16.5732 -16.5706 -16.5657 -16.5642 -16.5388 -16.5287 -16.4539 -16.4510
   -16.0322 -15.7123 -15.7097 -15.5352 -15.4367 -15.4330 -15.4162 -15.2757
   -15.2431 -15.0122 -15.0073 -14.9542 -14.8498 -14.7610 -14.7319 -14.7260
   -14.6519 -14.6268 -14.4992 -13.1749 -12.2805 -12.1544 -11.8899 -11.8869
   -11.5003 -11.4026 -10.6503 -10.5666 -10.4638 -10.1911 -10.1868  -9.5145
    -9.2419  -9.0382  -8.9812  -8.7664  -8.7616  -8.4844  -8.4064  -8.3070
    -8.2937  -8.2792  -8.2745  -8.0668  -7.9406  -7.9158  -7.8984  -7.8758
    -7.8399  -7.8206  -7.8029  -7.6964  -7.6908  -7.4995  -7.2413  -7.1141
    -7.0500  -7.0409  -7.0003  -6.7192  -6.6298  -6.6132  -6.4843  -6.4816
    -6.4736  -6.2749  -6.0211  -5.8729  -5.8644  -5.7469  -5.7399  -5.7321
    -5.6358  -5.6084  -5.5297  -5.4843  -5.3936  -5.3752  -5.3243  -5.3197
    -5.2625  -5.2225  -5.2149  -5.2105  -5.2043  -5.0778  -5.0516  -4.9635
    -4.9415  -4.9137  -4.8355  -4.8100  -4.7922  -4.7716  -4.6717  -4.5365
    -4.5293  -4.5012  -4.4508  -4.4119  -4.2355  -4.2315  -4.2201  -4.1874
    -4.1115  -4.1073  -4.0661  -4.0526  -3.8744  -3.8515  -3.8233  -3.8204
    -3.5526  -3.5396  -3.5191  -3.5113  -3.4626  -3.4263  -3.4077  -3.4017
    -3.3833  -3.3755  -3.3610  -3.3208  -3.3097  -3.2167  -3.2035  -3.1740
    -3.1358  -3.0548  -3.0019  -2.9835  -2.9612  -2.8944  -2.8696  -2.7688
    -2.7507  -2.7102  -2.7015  -2.4483  -0.4209  -0.4173  -0.3517  -0.2767
     0.2979   0.3028   0.4677   0.5130   0.5810   0.6007   0.8259   0.8502
     0.9220   0.9314   0.9486   0.9700   1.0271   1.0554   1.2215   1.2647
     1.2864   1.3152   1.4648   1.4791   1.7936   1.8090   1.9602   1.9898
     2.0421   2.1685   2.1957   2.2009   2.2187   2.2626   2.2816   2.5136
     2.5241   2.5354   2.6116   2.6440   2.9037   2.9825   3.0170   3.0286
     3.0628   3.1035   3.1747   3.2171   3.2357   3.2714   3.2980   3.3295
     3.3462   3.4531   3.4793   3.5333   3.6151   3.6524   3.8079   3.8468
     3.8654   3.9034   3.9574   3.9882   4.0847   4.1571   4.2387   4.2601
     4.2818   4.3395   4.4208   4.4410

     the Fermi energy is    -1.6939 ev
     (compare with:    -1.7197 eV, computed in scf)

     Writing all to output data dir ./test.save/ :
     XML data file, pseudopotentials, collected wavefunctions
 
     init_run     :      1.26s CPU      1.56s WALL (       1 calls)
     electrons    :  30085.99s CPU  30256.24s WALL (       1 calls)

     Called by init_run:
     wfcinit      :      0.00s CPU      0.05s WALL (       1 calls)
     potinit      :      0.24s CPU      0.31s WALL (       1 calls)
     hinit0       :      0.06s CPU      0.07s WALL (       1 calls)

     Called by electrons:
     c_bands      :  30085.98s CPU  30256.21s WALL (       1 calls)
     v_of_rho     :      0.15s CPU      0.19s WALL (       1 calls)
     newd         :      0.35s CPU      0.48s WALL (       1 calls)

     Called by c_bands:
     init_us_2    :      1.50s CPU      1.53s WALL (      96 calls)
     ccgdiagg     :  29912.35s CPU  30078.60s WALL (     576 calls)
     wfcrot       :    170.56s CPU    172.39s WALL (     576 calls)

     Called by *cgdiagg:
     h_psi        :  12410.26s CPU  12483.50s WALL ( 1788757 calls)
     s_psi        :  10091.43s CPU  10146.80s WALL ( 3576938 calls)

     Called by h_psi:
     h_psi:calbec :   5863.33s CPU   5897.18s WALL ( 1788757 calls)
     vloc_psi     :   1354.27s CPU   1366.56s WALL ( 1788757 calls)
     add_vuspsi   :   5169.06s CPU   5197.82s WALL ( 1788757 calls)
     hs_1psi      :  17338.79s CPU  17435.91s WALL ( 1788181 calls)
     s_1psi       :  10212.41s CPU  10265.02s WALL ( 1788181 calls)

     General routines
     calbec       :  11011.05s CPU  11074.32s WALL ( 3576938 calls)
     fft          :      0.15s CPU      0.18s WALL (      13 calls)
     ffts         :      0.00s CPU      0.00s WALL (       1 calls)
     fftw         :    743.75s CPU    750.72s WALL ( 3878762 calls)
     interpolate  :      0.01s CPU      0.01s WALL (       1 calls)
     davcio       :      0.05s CPU      2.31s WALL (     192 calls)
 
     Parallel routines
 
     PWSCF        :  30102.17s CPU  30283.81s WALL

 
   This run was terminated on:   4: 4:42  18Feb2026            

=------------------------------------------------------------------------------=
   JOB DONE.
=------------------------------------------------------------------------------=
