
     Program PWSCF v.7.3.1 starts on 17Feb2026 at 19: 5: 1 

     This program is part of the open-source Quantum ESPRESSO suite
     for quantum simulation of materials; please cite
         "P. Giannozzi et al., J. Phys.:Condens. Matter 21 395502 (2009);
         "P. Giannozzi et al., J. Phys.:Condens. Matter 29 465901 (2017);
         "P. Giannozzi et al., J. Chem. Phys. 152 154105 (2020);
          URL http://www.quantum-espresso.org", 
     in publications or presentations arising from this work. More details at
     http://www.quantum-espresso.org/quote

     Parallel version (MPI & OpenMP), running on      64 processor cores
     Number of MPI processes:                64
     Threads/MPI process:                     1

     MPI processes distributed on     1 nodes
     1016875 MiB available memory on the printing compute node when the environment starts
 
     Waiting for input...
     Reading input from standard input
Warning: card &CELL ignored
Warning: card   PRESS = 0.0, ignored
Warning: card / ignored

     Current dimensions of program PWSCF are:
     Max number of different atomic species (ntypx) = 10
     Max number of k-points (npk) =  40000
     Max angular momentum in pseudopotentials (lmaxx) =  4

     IMPORTANT: XC functional enforced from input :
     Exchange-correlation= PBE
                           (   1   4   3   4   0   0   0)
     Any further DFT definition will be discarded
     Please, verify this is what you really want

 
     R & G space division:  proc/nbgrp/npool/nimage =      64
     Subspace diagonalization in iterative solution of the eigenvalue problem:
     one sub-group per band group will be used
     ELPA distributed-memory algorithm (size of sub-group:  3*  3 procs)

 
     Parallelization info
     --------------------
     sticks:   dense  smooth     PW     G-vecs:    dense   smooth      PW
     Min         180      90     24                33956    12002    1671
     Max         181      91     26                33969    12012    1680
     Sum       11557    5773   1555              2173495   768463  107317
 
     Using Slab Decomposition
 


     bravais-lattice index     =            4
     lattice parameter (alat)  =      22.8869  a.u.
     unit-cell volume          =   22488.0312 (a.u.)^3
     number of atoms/cell      =           63
     number of atomic types    =            8
     number of electrons       =       376.00
     number of Kohn-Sham states=          260
     kinetic-energy cutoff     =      40.0000  Ry
     charge density cutoff     =     320.0000  Ry
     scf convergence threshold =      1.0E-08
     mixing beta               =       0.3000
     number of iterations used =            8  plain     mixing
     Exchange-correlation= PBE
                           (   1   4   3   4   0   0   0)

     celldm(1)=  22.886890  celldm(2)=   0.000000  celldm(3)=   2.166010
     celldm(4)=   0.000000  celldm(5)=   0.000000  celldm(6)=   0.000000

     crystal axes: (cart. coord. in units of alat)
               a(1) = (   1.000000   0.000000   0.000000 )  
               a(2) = (  -0.500000   0.866025   0.000000 )  
               a(3) = (   0.000000   0.000000   2.166010 )  

     reciprocal axes: (cart. coord. in units 2 pi/alat)
               b(1) = (  1.000000  0.577350  0.000000 )  
               b(2) = (  0.000000  1.154701  0.000000 )  
               b(3) = (  0.000000  0.000000  0.461678 )  


     PseudoPot. # 1 for Cu read from file:
     ./cu_pbe_v1.2.uspp.F.UPF
     MD5 check sum: 6e991ff952a84172a2a52a1c1e996048
     Pseudo is Ultrasoft + core correction, Zval = 19.0
     Generated by new atomic code, or converted to UPF format
     Using radial grid of  867 points,  6 beta functions with: 
                l(1) =   0
                l(2) =   0
                l(3) =   1
                l(4) =   1
                l(5) =   2
                l(6) =   2
     Q(r) pseudized with  8 coefficients,  rinner =    1.150   1.150   1.150
                                                       1.150   1.150

     PseudoPot. # 2 for In read from file:
     ./in_pbe_v1.4.uspp.F.UPF
     MD5 check sum: 90777abd96fbb83f2e67db2a40c566b9
     Pseudo is Ultrasoft + core correction, Zval = 13.0
     Generated by new atomic code, or converted to UPF format
     Using radial grid of  889 points,  6 beta functions with: 
                l(1) =   0
                l(2) =   0
                l(3) =   1
                l(4) =   1
                l(5) =   2
                l(6) =   2
     Q(r) pseudized with  6 coefficients,  rinner =    1.400   1.400   1.400
                                                       1.400   1.400

     PseudoPot. # 3 for P  read from file:
     ./p_pbe_v1.5.uspp.F.UPF
     MD5 check sum: eb82b2c351da08c5f5f8709277dc7ee5
     Pseudo is Ultrasoft + core correction, Zval =  5.0
     Generated by new atomic code, or converted to UPF format
     Using radial grid of  903 points,  6 beta functions with: 
                l(1) =   0
                l(2) =   0
                l(3) =   1
                l(4) =   1
                l(5) =   2
                l(6) =   2
     Q(r) pseudized with  8 coefficients,  rinner =    1.300   1.300   1.300
                                                       1.300   1.300

     PseudoPot. # 4 for S  read from file:
     ./s_pbe_v1.4.uspp.F.UPF
     MD5 check sum: 88d86576ff6df21479756cfb9bdac1df
     Pseudo is Ultrasoft + core correction, Zval =  6.0
     Generated by new atomic code, or converted to UPF format
     Using radial grid of  907 points,  6 beta functions with: 
                l(1) =   0
                l(2) =   0
                l(3) =   1
                l(4) =   1
                l(5) =   2
                l(6) =   2
     Q(r) pseudized with  8 coefficients,  rinner =    1.300   1.300   1.300
                                                       1.300   1.300

     PseudoPot. # 5 for C  read from file:
     ./c_pbe_v1.2.uspp.F.UPF
     MD5 check sum: d1aef80898a10debaa0f26306b886e00
     Pseudo is Ultrasoft + core correction, Zval =  4.0
     Generated by new atomic code, or converted to UPF format
     Using radial grid of  721 points,  4 beta functions with: 
                l(1) =   0
                l(2) =   0
                l(3) =   1
                l(4) =   1
     Q(r) pseudized with  8 coefficients,  rinner =    1.100   1.100   1.100


     PseudoPot. # 6 for O  read from file:
     ./o_pbe_v1.2.uspp.F.UPF
     MD5 check sum: 734c27235a0248c51dbae37a1fbe46ec
     Pseudo is Ultrasoft + core correction, Zval =  6.0
     Generated by new atomic code, or converted to UPF format
     Using radial grid of  737 points,  5 beta functions with: 
                l(1) =   0
                l(2) =   0
                l(3) =   1
                l(4) =   1
                l(5) =   2
     Q(r) pseudized with  8 coefficients,  rinner =    0.900   0.900   0.900
                                                       0.900   0.900

     PseudoPot. # 7 for N  read from file:
     ./n_pbe_v1.2.uspp.F.UPF
     MD5 check sum: 95339753478d7afb44899504a8723017
     Pseudo is Ultrasoft + core correction, Zval =  5.0
     Generated by new atomic code, or converted to UPF format
     Using radial grid of  729 points,  4 beta functions with: 
                l(1) =   0
                l(2) =   0
                l(3) =   1
                l(4) =   1
     Q(r) pseudized with  8 coefficients,  rinner =    0.900   0.900   0.900


     PseudoPot. # 8 for H  read from file:
     ./h_pbe_v1.4.uspp.F.UPF
     MD5 check sum: 761ae9a214b05c3daf00ab9f6b793d6f
     Pseudo is Ultrasoft, Zval =  1.0
     Generated by new atomic code, or converted to UPF format
     Using radial grid of  615 points,  2 beta functions with: 
                l(1) =   0
                l(2) =   0
     Q(r) pseudized with  8 coefficients,  rinner =    0.700

     atomic species   valence    mass     pseudopotential
     Cu               19.00    63.54600     Cu( 1.00)
     In               13.00   114.81800     In( 1.00)
     P                 5.00    30.97400     P ( 1.00)
     S                 6.00    32.06500     S ( 1.00)
     C                 4.00    12.01100     C ( 1.00)
     O                 6.00    15.99900     O ( 1.00)
     N                 5.00    14.00670     N ( 1.00)
     H                 1.00     1.00780     H ( 1.00)

     No symmetry found



   Cartesian axes

     site n.     atom                  positions (alat units)
         1        Cu     tau(   1) = (   0.2494741   0.1368523   0.9325263  )
         2        Cu     tau(   2) = (  -0.0008165   0.5699097   0.9321289  )
         3        Cu     tau(   3) = (   0.7495071   0.1367736   0.9325836  )
         4        Cu     tau(   4) = (   0.4997216   0.5696681   0.9325622  )
         5        In     tau(   5) = (   0.9996037  -0.0076857   1.0605888  )
         6        In     tau(   6) = (   0.7495150   0.4255413   1.0594874  )
         7        In     tau(   7) = (   0.5001742  -0.0081793   1.0612513  )
         8        In     tau(   8) = (   0.2494782   0.4256523   1.0607957  )
         9        P      tau(   9) = (  -0.0003992   0.2810527   0.9505113  )
        10        P      tau(  10) = (  -0.2504740   0.7142932   0.9505087  )
        11        P      tau(  11) = (   0.4994278   0.2809585   0.9515213  )
        12        P      tau(  12) = (   0.2495199   0.7141401   0.9519169  )
        13        P      tau(  13) = (  -0.0003648   0.2811756   1.1363384  )
        14        P      tau(  14) = (  -0.2504090   0.7134239   1.1363766  )
        15        P      tau(  15) = (   0.4996737   0.2812768   1.1374045  )
        16        P      tau(  16) = (   0.2491231   0.7145264   1.1378653  )
        17        S      tau(  17) = (  -0.0703729   0.1346777   0.8993256  )
        18        S      tau(  18) = (  -0.3202973   0.5681346   0.8984782  )
        19        S      tau(  19) = (   0.4297203   0.1345280   0.9003383  )
        20        S      tau(  20) = (   0.1795557   0.5679288   0.9001987  )
        21        S      tau(  21) = (   0.4111203   0.7266181   0.9001476  )
        22        S      tau(  22) = (   0.6609513   0.2936336   0.8994812  )
        23        S      tau(  23) = (  -0.0888055   0.7271194   0.8992281  )
        24        S      tau(  24) = (   0.1612909   0.2938724   0.8992604  )
        25        S      tau(  25) = (  -0.3423728   0.8480024   0.8994131  )
        26        S      tau(  26) = (  -0.0921102   0.4145996   0.8985757  )
        27        S      tau(  27) = (   0.1578601   0.8476833   0.8999401  )
        28        S      tau(  28) = (   0.4077434   0.4146876   0.8999548  )
        29        S      tau(  29) = (   0.3225783   0.8587260   1.1809808  )
        30        S      tau(  30) = (   0.5723798   0.4258392   1.1803075  )
        31        S      tau(  31) = (  -0.1776825   0.8576521   1.1809443  )
        32        S      tau(  32) = (   0.0717822   0.4257298   1.1802933  )
        33        S      tau(  33) = (   0.0884376   0.1461489   1.1801777  )
        34        S      tau(  34) = (  -0.1608666   0.5785490   1.1788237  )
        35        S      tau(  35) = (   0.5880989   0.1461376   1.1813914  )
        36        S      tau(  36) = (   0.3377986   0.5791507   1.1814360  )
        37        S      tau(  37) = (  -0.4116442   0.7043250   1.1803636  )
        38        S      tau(  38) = (  -0.1618021   0.2719514   1.1799355  )
        39        S      tau(  39) = (   0.0882733   0.7054288   1.1827738  )
        40        S      tau(  40) = (   0.3382139   0.2720266   1.1809500  )
        41        C      tau(  41) = (  -0.0263310   0.5650171   1.6261218  )
        42        C      tau(  42) = (  -0.0262231   0.6255548   1.5152294  )
        43        C      tau(  43) = (  -0.1461503   0.6542067   1.4831601  )
        44        C      tau(  44) = (  -0.2047908   0.7251546   1.5667749  )
        45        C      tau(  45) = (  -0.1944652   0.8404000   1.5635821  )
        46        C      tau(  46) = (  -0.2684073   0.6774418   1.6508941  )
        47        C      tau(  47) = (   0.2537604   0.0404554   1.6425600  )
        48        C      tau(  48) = (  -0.3202393   0.7432956   1.7301128  )
        49        C      tau(  49) = (  -0.3092288   0.8580184   1.7262092  )
        50        O      tau(  50) = (   0.0227943   0.6243280   1.7078413  )
        51        O      tau(  51) = (  -0.0647661   0.4731820   1.6403971  )
        52        N      tau(  52) = (   0.0232226   0.5586161   1.4276397  )
        53        H      tau(  53) = (  -0.1910222   0.5756646   1.4712857  )
        54        H      tau(  54) = (  -0.0139447   0.4821932   1.4263482  )
        55        H      tau(  55) = (  -0.2770996   0.5874538   1.6539503  )
        56        H      tau(  56) = (  -0.3698851   0.7046998   1.7950428  )
        57        H      tau(  57) = (   0.0217453   0.7025080   1.5237797  )
        58        H      tau(  58) = (  -0.1419876   0.6961298   1.4024298  )
        59        H      tau(  59) = (   0.3543256   0.0126146   1.4976463  )
        60        H      tau(  60) = (   0.2622219   0.1303314   1.6385535  )
        61        H      tau(  61) = (   0.1056551   0.5454340   1.4427007  )
        62        H      tau(  62) = (   0.0169631   0.5789702   1.7754711  )
        63        H      tau(  63) = (  -0.3502160   0.9097587   1.7879217  )

     -------------------------------------------------
     Parameters for Dispersion (Grimme-D2) Correction:
     -------------------------------------------------
       atom      VdW radius       C_6     

        Cu         2.952        374.666
        In         3.160       1294.678
        P          3.222        271.980
        S          3.180        193.230
        C          2.744         60.710
        O          2.536         24.284
        N          2.640         42.670
        H          1.892          4.857

     number of k points=    54  Gaussian smearing, width (Ry)=  0.0100
                       cart. coord. in units 2pi/alat
        k(    1) = (   0.0833333   0.1443376  -0.2308392), wk =   0.0370370
        k(    2) = (   0.0833333   0.3367877  -0.2308392), wk =   0.0370370
        k(    3) = (   0.0833333   0.5292377  -0.2308392), wk =   0.0370370
        k(    4) = (   0.0833333  -0.4330127  -0.2308392), wk =   0.0370370
        k(    5) = (   0.0833333  -0.2405626  -0.2308392), wk =   0.0370370
        k(    6) = (   0.0833333  -0.0481125  -0.2308392), wk =   0.0370370
        k(    7) = (   0.2500000   0.4330127  -0.2308392), wk =   0.0370370
        k(    8) = (   0.2500000   0.6254628  -0.2308392), wk =   0.0370370
        k(    9) = (   0.2500000  -0.3367877  -0.2308392), wk =   0.0370370
        k(   10) = (   0.2500000  -0.1443376  -0.2308392), wk =   0.0370370
        k(   11) = (   0.4166667   0.7216878  -0.2308392), wk =   0.0370370
        k(   12) = (   0.4166667  -0.2405626  -0.2308392), wk =   0.0370370
        k(   13) = (  -0.0833333   0.1443376   0.2308392), wk =   0.0370370
        k(   14) = (   0.1666667   0.0000000  -0.2308392), wk =   0.0370370
        k(   15) = (  -0.0833333   0.3367877   0.2308392), wk =   0.0370370
        k(   16) = (  -0.2500000   0.2405626  -0.2308392), wk =   0.0370370
        k(   17) = (   0.3333333   0.0962250  -0.2308392), wk =   0.0370370
        k(   18) = (  -0.2500000  -0.2405626   0.2308392), wk =   0.0370370
        k(   19) = (   0.3333333  -0.0962250   0.2308392), wk =   0.0370370
        k(   20) = (  -0.0833333   0.5292377   0.2308392), wk =   0.0370370
        k(   21) = (  -0.4166667   0.3367877  -0.2308392), wk =   0.0370370
        k(   22) = (   0.5000000   0.1924501  -0.2308392), wk =   0.0370370
        k(   23) = (  -0.4166667  -0.3367877   0.2308392), wk =   0.0370370
        k(   24) = (   0.5000000  -0.1924501   0.2308392), wk =   0.0370370
        k(   25) = (  -0.0833333  -0.4330127   0.2308392), wk =   0.0370370
        k(   26) = (   0.4166667  -0.1443376  -0.2308392), wk =   0.0370370
        k(   27) = (  -0.3333333  -0.2886751  -0.2308392), wk =   0.0370370
        k(   28) = (   0.4166667   0.1443376   0.2308392), wk =   0.0370370
        k(   29) = (  -0.3333333   0.2886751   0.2308392), wk =   0.0370370
        k(   30) = (  -0.0833333  -0.2405626   0.2308392), wk =   0.0370370
        k(   31) = (   0.2500000  -0.0481125  -0.2308392), wk =   0.0370370
        k(   32) = (  -0.1666667  -0.1924501  -0.2308392), wk =   0.0370370
        k(   33) = (   0.2500000   0.0481125   0.2308392), wk =   0.0370370
        k(   34) = (  -0.1666667   0.1924501   0.2308392), wk =   0.0370370
        k(   35) = (  -0.0833333  -0.0481125   0.2308392), wk =   0.0370370
        k(   36) = (   0.0000000  -0.0962250  -0.2308392), wk =   0.0370370
        k(   37) = (  -0.2500000   0.4330127   0.2308392), wk =   0.0370370
        k(   38) = (   0.5000000   0.0000000  -0.2308392), wk =   0.0370370
        k(   39) = (  -0.2500000   0.6254628   0.2308392), wk =   0.0370370
        k(   40) = (  -0.4166667   0.5292377  -0.2308392), wk =   0.0370370
        k(   41) = (   0.6666667   0.0962250  -0.2308392), wk =   0.0370370
        k(   42) = (  -0.4166667  -0.5292377   0.2308392), wk =   0.0370370
        k(   43) = (   0.6666667  -0.0962250   0.2308392), wk =   0.0370370
        k(   44) = (  -0.2500000  -0.3367877   0.2308392), wk =   0.0370370
        k(   45) = (   0.4166667   0.0481125  -0.2308392), wk =   0.0370370
        k(   46) = (  -0.1666667  -0.3849002  -0.2308392), wk =   0.0370370
        k(   47) = (   0.4166667  -0.0481125   0.2308392), wk =   0.0370370
        k(   48) = (  -0.1666667   0.3849002   0.2308392), wk =   0.0370370
        k(   49) = (  -0.2500000  -0.1443376   0.2308392), wk =   0.0370370
        k(   50) = (   0.0000000  -0.2886751  -0.2308392), wk =   0.0370370
        k(   51) = (  -0.4166667   0.7216878   0.2308392), wk =   0.0370370
        k(   52) = (   0.8333333   0.0000000  -0.2308392), wk =   0.0370370
        k(   53) = (  -0.4166667  -0.2405626   0.2308392), wk =   0.0370370
        k(   54) = (   0.0000000  -0.4811252  -0.2308392), wk =   0.0370370

     Dense  grid:  2173495 G-vectors     FFT dimensions: ( 135, 135, 288)

     Smooth grid:   768463 G-vectors     FFT dimensions: (  96,  96, 200)

     Estimated max dynamical RAM per process >     494.73 MB

     Estimated total dynamical RAM >      30.92 GB

     Initial potential from superposition of free atoms

     starting charge     365.9974, renormalised to     376.0000

     negative rho (up, down):  3.779E-03 0.000E+00
     Starting wfcs are  275 randomized atomic wfcs

     total cpu time spent up to now is       22.2 secs

     per-process dynamical memory:   101.1 Mb

     Self-consistent Calculation

     iteration #  1     ecut=    40.00 Ry     beta= 0.30
     Davidson diagonalization with overlap
     ethr =  1.00E-02,  avg # of iterations =  9.4

     negative rho (up, down):  1.702E-03 0.000E+00

     total cpu time spent up to now is      118.7 secs

     total energy              =   -2910.99687921 Ry
     estimated scf accuracy    <     305.51267852 Ry

     iteration #  2     ecut=    40.00 Ry     beta= 0.30
     Davidson diagonalization with overlap
     ethr =  1.00E-02,  avg # of iterations = 12.0

     negative rho (up, down):  2.663E-03 0.000E+00

     total cpu time spent up to now is      362.2 secs

     total energy              =   -2576.92628208 Ry
     estimated scf accuracy    <   16056.16633268 Ry

     iteration #  3     ecut=    40.00 Ry     beta= 0.30
     Davidson diagonalization with overlap
     ethr =  1.00E-02,  avg # of iterations = 11.0

     negative rho (up, down):  2.670E-03 0.000E+00

     total cpu time spent up to now is      578.4 secs

     total energy              =   -3045.82715790 Ry
     estimated scf accuracy    <     111.10346661 Ry

     iteration #  4     ecut=    40.00 Ry     beta= 0.30
     Davidson diagonalization with overlap
     ethr =  1.00E-02,  avg # of iterations =  2.9

     negative rho (up, down):  2.804E-03 0.000E+00

     total cpu time spent up to now is      640.6 secs

     total energy              =   -3055.03885482 Ry
     estimated scf accuracy    <       8.74669946 Ry

     iteration #  5     ecut=    40.00 Ry     beta= 0.30
     Davidson diagonalization with overlap
     ethr =  2.33E-03,  avg # of iterations =  5.0

     negative rho (up, down):  2.589E-03 0.000E+00

     total cpu time spent up to now is      701.7 secs

     total energy              =   -3054.52468762 Ry
     estimated scf accuracy    <       4.20741592 Ry

     iteration #  6     ecut=    40.00 Ry     beta= 0.30
     Davidson diagonalization with overlap
     ethr =  1.12E-03,  avg # of iterations = 10.7

     negative rho (up, down):  2.090E-03 0.000E+00

     total cpu time spent up to now is      775.8 secs

     total energy              =   -3054.11148478 Ry
     estimated scf accuracy    <       2.21702564 Ry

     iteration #  7     ecut=    40.00 Ry     beta= 0.30
     Davidson diagonalization with overlap
     ethr =  5.90E-04,  avg # of iterations =  4.8

     negative rho (up, down):  1.880E-03 0.000E+00

     total cpu time spent up to now is      837.3 secs

     total energy              =   -3053.97432620 Ry
     estimated scf accuracy    <       0.94318324 Ry

     iteration #  8     ecut=    40.00 Ry     beta= 0.30
     Davidson diagonalization with overlap
     ethr =  2.51E-04,  avg # of iterations = 10.8

     negative rho (up, down):  1.894E-03 0.000E+00

     total cpu time spent up to now is      915.0 secs

     total energy              =   -3053.93288239 Ry
     estimated scf accuracy    <       0.31607849 Ry

     iteration #  9     ecut=    40.00 Ry     beta= 0.30
     Davidson diagonalization with overlap
     c_bands:  1 eigenvalues not converged
     c_bands:  1 eigenvalues not converged
     c_bands:  1 eigenvalues not converged
     c_bands:  1 eigenvalues not converged
     ethr =  8.41E-05,  avg # of iterations = 12.7

     negative rho (up, down):  1.966E-03 0.000E+00

     total cpu time spent up to now is      997.1 secs

     total energy              =   -3053.93894549 Ry
     estimated scf accuracy    <       0.09727115 Ry

     iteration # 10     ecut=    40.00 Ry     beta= 0.30
     Davidson diagonalization with overlap
     c_bands:  1 eigenvalues not converged
     c_bands:  1 eigenvalues not converged
     c_bands:  1 eigenvalues not converged
     c_bands:  1 eigenvalues not converged
     c_bands:  1 eigenvalues not converged
     c_bands:  1 eigenvalues not converged
     c_bands:  1 eigenvalues not converged
     ethr =  2.59E-05,  avg # of iterations = 12.6

     negative rho (up, down):  2.116E-03 0.000E+00

     total cpu time spent up to now is     1077.7 secs

     total energy              =   -3053.93003355 Ry
     estimated scf accuracy    <       0.06146502 Ry

     iteration # 11     ecut=    40.00 Ry     beta= 0.30
     Davidson diagonalization with overlap
     c_bands:  1 eigenvalues not converged
     c_bands:  1 eigenvalues not converged
     c_bands:  2 eigenvalues not converged
     c_bands:  1 eigenvalues not converged
     c_bands:  3 eigenvalues not converged
     c_bands:  1 eigenvalues not converged
     c_bands:  1 eigenvalues not converged
     c_bands:  1 eigenvalues not converged
     ethr =  1.63E-05,  avg # of iterations = 11.5

     negative rho (up, down):  2.486E-03 0.000E+00

     total cpu time spent up to now is     1152.6 secs

     total energy              =   -3053.92145790 Ry
     estimated scf accuracy    <       0.03443016 Ry

     iteration # 12     ecut=    40.00 Ry     beta= 0.30
     Davidson diagonalization with overlap
     ethr =  9.16E-06,  avg # of iterations = 14.5

     negative rho (up, down):  2.871E-03 0.000E+00

     total cpu time spent up to now is     1245.6 secs

     total energy              =   -3053.91720650 Ry
     estimated scf accuracy    <       0.02412886 Ry

     iteration # 13     ecut=    40.00 Ry     beta= 0.30
     Davidson diagonalization with overlap
     c_bands:  1 eigenvalues not converged
     c_bands:  1 eigenvalues not converged
     c_bands:  1 eigenvalues not converged
     c_bands:  1 eigenvalues not converged
     c_bands:  1 eigenvalues not converged
     c_bands:  2 eigenvalues not converged
     c_bands:  1 eigenvalues not converged
     c_bands:  1 eigenvalues not converged
     c_bands:  1 eigenvalues not converged
     c_bands:  1 eigenvalues not converged
     c_bands:  1 eigenvalues not converged
     c_bands:  1 eigenvalues not converged
     ethr =  6.42E-06,  avg # of iterations = 17.0

     negative rho (up, down):  1.284E-02 0.000E+00

     total cpu time spent up to now is     1332.4 secs

     total energy              =   -3053.91416421 Ry
     estimated scf accuracy    <       0.00755733 Ry

     iteration # 14     ecut=    40.00 Ry     beta= 0.30
     Davidson diagonalization with overlap
     c_bands:  3 eigenvalues not converged
     c_bands:  2 eigenvalues not converged
     c_bands:  1 eigenvalues not converged
     c_bands:  1 eigenvalues not converged
     c_bands:  1 eigenvalues not converged
     c_bands:  2 eigenvalues not converged
     c_bands:  3 eigenvalues not converged
     c_bands:  1 eigenvalues not converged
     c_bands:  1 eigenvalues not converged
     c_bands:  3 eigenvalues not converged
     c_bands:  1 eigenvalues not converged
     c_bands:  1 eigenvalues not converged
     c_bands:  2 eigenvalues not converged
     c_bands:  1 eigenvalues not converged
     c_bands:  1 eigenvalues not converged
     c_bands:  2 eigenvalues not converged
     c_bands:  1 eigenvalues not converged
     c_bands:  2 eigenvalues not converged
     c_bands:  1 eigenvalues not converged
     c_bands:  1 eigenvalues not converged
     c_bands:  2 eigenvalues not converged
     ethr =  2.01E-06,  avg # of iterations = 17.5

     negative rho (up, down):  7.540E-03 0.000E+00

     total cpu time spent up to now is     1441.2 secs

     total energy              =   -3053.91557527 Ry
     estimated scf accuracy    <       0.00098780 Ry

     iteration # 15     ecut=    40.00 Ry     beta= 0.30
     Davidson diagonalization with overlap
     c_bands:  1 eigenvalues not converged
     c_bands:  1 eigenvalues not converged
     c_bands:  1 eigenvalues not converged
     ethr =  2.63E-07,  avg # of iterations =  8.4

     negative rho (up, down):  4.983E-03 0.000E+00

     total cpu time spent up to now is     1539.1 secs

     total energy              =   -3053.91611183 Ry
     estimated scf accuracy    <       0.00030206 Ry

     iteration # 16     ecut=    40.00 Ry     beta= 0.30
     Davidson diagonalization with overlap
     c_bands:  1 eigenvalues not converged
     ethr =  8.03E-08,  avg # of iterations =  7.9

     negative rho (up, down):  4.286E-03 0.000E+00

     total cpu time spent up to now is     1606.2 secs

     total energy              =   -3053.91613384 Ry
     estimated scf accuracy    <       0.00007662 Ry

     iteration # 17     ecut=    40.00 Ry     beta= 0.30
     Davidson diagonalization with overlap
     ethr =  2.04E-08,  avg # of iterations =  5.8

     negative rho (up, down):  3.630E-03 0.000E+00

     total cpu time spent up to now is     1674.0 secs

     total energy              =   -3053.91615442 Ry
     estimated scf accuracy    <       0.00001415 Ry

     iteration # 18     ecut=    40.00 Ry     beta= 0.30
     Davidson diagonalization with overlap
     ethr =  3.76E-09,  avg # of iterations =  5.4

     negative rho (up, down):  3.581E-03 0.000E+00

     total cpu time spent up to now is     1754.4 secs

     total energy              =   -3053.91616009 Ry
     estimated scf accuracy    <       0.00000355 Ry

     iteration # 19     ecut=    40.00 Ry     beta= 0.30
     Davidson diagonalization with overlap
     ethr =  9.44E-10,  avg # of iterations =  3.4

     negative rho (up, down):  3.545E-03 0.000E+00

     total cpu time spent up to now is     1815.7 secs

     total energy              =   -3053.91616076 Ry
     estimated scf accuracy    <       0.00000073 Ry

     iteration # 20     ecut=    40.00 Ry     beta= 0.30
     Davidson diagonalization with overlap
     ethr =  1.94E-10,  avg # of iterations =  3.2

     negative rho (up, down):  3.545E-03 0.000E+00

     total cpu time spent up to now is     1878.6 secs

     total energy              =   -3053.91616091 Ry
     estimated scf accuracy    <       0.00000017 Ry

     iteration # 21     ecut=    40.00 Ry     beta= 0.30
     Davidson diagonalization with overlap
     ethr =  4.45E-11,  avg # of iterations =  3.1

     negative rho (up, down):  3.547E-03 0.000E+00

     total cpu time spent up to now is     1945.4 secs

     total energy              =   -3053.91616095 Ry
     estimated scf accuracy    <       0.00000003 Ry

     iteration # 22     ecut=    40.00 Ry     beta= 0.30
     Davidson diagonalization with overlap
     ethr =  8.91E-12,  avg # of iterations =  4.2

     negative rho (up, down):  3.545E-03 0.000E+00

     total cpu time spent up to now is     2018.4 secs

     total energy              =   -3053.91616096 Ry
     estimated scf accuracy    <       0.00000001 Ry

     iteration # 23     ecut=    40.00 Ry     beta= 0.30
     Davidson diagonalization with overlap
     ethr =  2.72E-12,  avg # of iterations =  3.4

     negative rho (up, down):  3.543E-03 0.000E+00

     total cpu time spent up to now is     2079.7 secs

     End of self-consistent calculation

          k = 0.0833 0.1443-0.2308 ( 95992 PWs)   bands (ev):

  -113.7098-113.7086-113.7069-113.7052 -71.1819 -71.1812 -71.1808 -71.1800
   -71.1791 -71.1786 -71.1771 -71.1766 -71.0114 -71.0102 -71.0080 -71.0069
   -24.3583 -22.0550 -19.1046 -18.2655 -18.1164 -18.1105 -18.1042 -17.8687
   -17.2984 -17.2964 -17.2951 -17.2600 -16.8676 -16.8538 -16.8332 -16.8282
   -16.8259 -16.6136 -16.6119 -16.6018 -16.5793 -16.5790 -16.5781 -16.5761
   -16.5750 -16.5656 -16.5629 -16.5625 -16.5468 -16.4756 -16.4745 -16.4581
   -16.0322 -15.7812 -15.7614 -15.7596 -15.3562 -15.3355 -15.3307 -15.2014
   -15.1801 -15.0507 -15.0326 -15.0298 -14.9543 -14.7081 -14.6997 -14.6912
   -14.6019 -14.5822 -14.4991 -13.1750 -12.5278 -11.9318 -11.9280 -11.8959
   -11.5003 -11.4026 -10.7503 -10.6454 -10.2588 -10.2537 -10.2174  -9.5145
    -9.2424  -9.1367  -8.8815  -8.8788  -8.8477  -8.4842  -8.4062  -8.2128
    -8.1995  -8.1718  -8.1345  -8.0821  -8.0611  -7.8976  -7.8780  -7.8622
    -7.8394  -7.6117  -7.5992  -7.5947  -7.5527  -7.4984  -7.4704  -7.0219
    -6.9980  -6.9553  -6.9373  -6.7737  -6.7609  -6.7538  -6.7419  -6.7157
    -6.4745  -6.2752  -6.0263  -5.9719  -5.9643  -5.9596  -5.7222  -5.7138
    -5.7020  -5.6279  -5.4934  -5.4109  -5.3993  -5.3913  -5.3682  -5.3198
    -5.2828  -5.2492  -5.1869  -5.1800  -5.1782  -4.9900  -4.9804  -4.9685
    -4.9536  -4.9398  -4.7712  -4.7077  -4.6963  -4.6867  -4.6628  -4.5608
    -4.5546  -4.5500  -4.4183  -4.3589  -4.2911  -4.2827  -4.2737  -4.2506
    -4.2025  -4.1919  -4.1739  -4.1646  -3.8263  -3.8209  -3.8150  -3.6604
    -3.6564  -3.6451  -3.5576  -3.4917  -3.4545  -3.4032  -3.3957  -3.3885
    -3.3621  -3.3463  -3.3304  -3.3179  -3.2734  -3.2459  -3.2362  -3.1995
    -3.1465  -2.9502  -2.9314  -2.9262  -2.8938  -2.7811  -2.7724  -2.7557
    -2.7113  -2.6017  -2.5342  -2.4513  -0.7101  -0.3776  -0.3343  -0.3294
     0.2460   0.4407   0.4996   0.5157   0.5793   0.6126   0.6196   0.7806
     0.8228   0.8303   0.9761   1.0042   1.0115   1.0175   1.0264   1.3059
     1.4217   1.4545   1.4762   1.5411   1.7861   1.8107   1.8239   1.9985
     2.1497   2.1870   2.2549   2.2768   2.2976   2.3107   2.3263   2.3732
     2.5230   2.6483   2.6670   2.6772   2.9098   2.9789   2.9859   2.9977
     3.0194   3.0675   3.0902   3.1445   3.1843   3.2086   3.2787   3.4452
     3.4832   3.5063   3.5441   3.6387   3.6915   3.7464   3.7659   3.8247
     3.9062   3.9500   3.9735   4.0405   4.0925   4.1642   4.1914   4.2057
     4.2310   4.2448   4.2932   4.3340

          k = 0.0833 0.3368-0.2308 ( 96032 PWs)   bands (ev):

  -113.7098-113.7086-113.7069-113.7052 -71.1819 -71.1812 -71.1808 -71.1800
   -71.1791 -71.1786 -71.1771 -71.1766 -71.0114 -71.0102 -71.0080 -71.0069
   -24.3583 -22.0550 -19.1046 -18.2413 -18.1414 -18.1184 -18.1004 -17.8687
   -17.2950 -17.2920 -17.2893 -17.2707 -16.8644 -16.8535 -16.8470 -16.8381
   -16.8048 -16.6414 -16.6080 -16.5905 -16.5788 -16.5782 -16.5777 -16.5750
   -16.5741 -16.5680 -16.5651 -16.5630 -16.5441 -16.5059 -16.4763 -16.4407
   -16.0322 -15.7563 -15.7175 -15.6611 -15.4208 -15.3641 -15.3149 -15.2966
   -15.2092 -15.0374 -15.0056 -14.9543 -14.9481 -14.7300 -14.7029 -14.6784
   -14.6732 -14.6014 -14.4992 -13.1749 -12.4142 -12.0224 -11.9367 -11.8663
   -11.5003 -11.4026 -10.6771 -10.6404 -10.3451 -10.2514 -10.1710  -9.5145
    -9.2421  -9.0940  -8.9191  -8.8452  -8.7764  -8.4843  -8.4063  -8.2826
    -8.2786  -8.2149  -8.1716  -8.0662  -8.0090  -7.9847  -7.8872  -7.8661
    -7.8393  -7.7243  -7.6921  -7.6509  -7.6440  -7.4993  -7.3682  -7.0850
    -7.0130  -6.9893  -6.9666  -6.7195  -6.6876  -6.6538  -6.5912  -6.5858
    -6.4748  -6.2750  -6.0221  -5.9164  -5.8810  -5.8763  -5.7509  -5.6987
    -5.6857  -5.5953  -5.4945  -5.4296  -5.4138  -5.3754  -5.3648  -5.3311
    -5.2559  -5.2382  -5.2002  -5.1940  -5.1918  -5.0293  -5.0051  -4.9773
    -4.9643  -4.9596  -4.7836  -4.7619  -4.7557  -4.7289  -4.6713  -4.5536
    -4.5467  -4.5353  -4.4206  -4.4013  -4.2851  -4.2770  -4.2132  -4.2045
    -4.1490  -4.1331  -4.1186  -4.0953  -3.8256  -3.8075  -3.8025  -3.6846
    -3.6162  -3.6113  -3.5605  -3.4998  -3.4659  -3.4240  -3.3976  -3.3905
    -3.3697  -3.3628  -3.3436  -3.3232  -3.3132  -3.2288  -3.2265  -3.2062
    -3.1723  -3.0115  -2.9515  -2.9323  -2.8953  -2.8893  -2.8191  -2.7880
    -2.7592  -2.6642  -2.6294  -2.4486  -0.5048  -0.4299  -0.3511  -0.2771
     0.3182   0.3776   0.4341   0.5137   0.5513   0.7157   0.7443   0.8025
     0.8574   0.9368   0.9456   0.9514   1.0116   1.0288   1.0449   1.3083
     1.3338   1.3752   1.4848   1.5122   1.7697   1.8275   1.8941   1.9930
     2.1006   2.1695   2.1968   2.2256   2.2422   2.2663   2.3062   2.4607
     2.5770   2.5956   2.6380   2.6986   2.9204   2.9442   2.9864   3.0057
     3.0255   3.0706   3.1230   3.1818   3.2098   3.2287   3.3090   3.4057
     3.4324   3.4922   3.4963   3.5671   3.6799   3.7205   3.7566   3.8134
     3.8438   3.9160   4.0220   4.0335   4.1024   4.1605   4.1856   4.2590
     4.2901   4.3169   4.3432   4.3615

          k = 0.0833 0.5292-0.2308 ( 96076 PWs)   bands (ev):

  -113.7098-113.7086-113.7069-113.7052 -71.1819 -71.1812 -71.1808 -71.1800
   -71.1791 -71.1786 -71.1771 -71.1766 -71.0114 -71.0102 -71.0080 -71.0069
   -24.3583 -22.0550 -19.1046 -18.2033 -18.1817 -18.1214 -18.0987 -17.8687
   -17.2901 -17.2870 -17.2851 -17.2821 -16.8678 -16.8602 -16.8567 -16.8509
   -16.7349 -16.6990 -16.6047 -16.5853 -16.5784 -16.5777 -16.5762 -16.5747
   -16.5729 -16.5707 -16.5664 -16.5637 -16.5371 -16.5302 -16.4758 -16.4295
   -16.0322 -15.7293 -15.6783 -15.5165 -15.4692 -15.4402 -15.4028 -15.2766
   -15.2513 -15.0260 -14.9834 -14.9542 -14.8363 -14.7810 -14.7455 -14.7118
   -14.6504 -14.6305 -14.4992 -13.1749 -12.2529 -12.1691 -11.9369 -11.8490
   -11.5003 -11.4026 -10.6500 -10.5445 -10.4757 -10.2430 -10.1414  -9.5144
    -9.2419  -9.0250  -8.9864  -8.8109  -8.7115  -8.4844  -8.4064  -8.3248
    -8.3058  -8.2930  -8.2386  -8.0669  -7.9558  -7.9215  -7.9027  -7.8467
    -7.8428  -7.8379  -7.8062  -7.7081  -7.7032  -7.4994  -7.2104  -7.1273
    -7.1114  -7.0107  -6.9819  -6.7191  -6.6173  -6.6122  -6.4783  -6.4755
    -6.4663  -6.2749  -6.0209  -5.8774  -5.8328  -5.7558  -5.7244  -5.7174
    -5.6529  -5.6096  -5.5449  -5.4857  -5.3985  -5.3658  -5.3293  -5.3052
    -5.2624  -5.2257  -5.2233  -5.2022  -5.1996  -5.0776  -5.0478  -4.9753
    -4.9376  -4.9058  -4.8613  -4.8213  -4.7992  -4.7712  -4.6715  -4.5390
    -4.5189  -4.4807  -4.4590  -4.4119  -4.2550  -4.2329  -4.1915  -4.1816
    -4.1096  -4.1007  -4.0650  -4.0464  -3.8843  -3.8665  -3.8386  -3.8106
    -3.5479  -3.5439  -3.5170  -3.5060  -3.4444  -3.4395  -3.4295  -3.3976
    -3.3779  -3.3739  -3.3639  -3.3529  -3.2792  -3.1914  -3.1877  -3.1793
    -3.1531  -3.0740  -3.0051  -2.9977  -2.9635  -2.8941  -2.8292  -2.7872
    -2.7797  -2.7555  -2.6416  -2.4481  -0.4549  -0.3819  -0.3341  -0.2886
     0.2364   0.3552   0.4769   0.4970   0.5033   0.6918   0.7914   0.8834
     0.9134   0.9444   0.9627   0.9820   1.0156   1.0617   1.1899   1.2020
     1.3332   1.3521   1.4348   1.4933   1.7380   1.8730   1.9771   1.9983
     2.0458   2.1681   2.1871   2.2051   2.2172   2.2616   2.2808   2.5106
     2.5170   2.5287   2.6130   2.6501   2.9056   2.9898   3.0175   3.0307
     3.0562   3.1134   3.1808   3.2106   3.2649   3.2842   3.3047   3.3166
     3.3496   3.4284   3.4531   3.5022   3.6150   3.6980   3.8004   3.8487
     3.8779   3.9130   3.9353   3.9621   4.1002   4.1265   4.2224   4.2712
     4.2838   4.3528   4.4270   4.4366

          k = 0.0833-0.4330-0.2308 ( 96090 PWs)   bands (ev):

  -113.7098-113.7086-113.7069-113.7052 -71.1819 -71.1812 -71.1808 -71.1800
   -71.1791 -71.1786 -71.1771 -71.1766 -71.0114 -71.0102 -71.0080 -71.0069
   -24.3583 -22.0550 -19.1046 -18.2235 -18.1606 -18.1205 -18.0991 -17.8687
   -17.2922 -17.2900 -17.2864 -17.2768 -16.8638 -16.8607 -16.8541 -16.8454
   -16.7713 -16.6662 -16.6068 -16.5865 -16.5787 -16.5780 -16.5771 -16.5746
   -16.5735 -16.5695 -16.5658 -16.5635 -16.5413 -16.5200 -16.4763 -16.4334
   -16.0322 -15.7425 -15.6898 -15.5945 -15.4471 -15.3942 -15.3635 -15.2930
   -15.2309 -15.0334 -14.9857 -14.9543 -14.8987 -14.7388 -14.7227 -14.7103
   -14.6627 -14.6170 -14.4992 -13.1749 -12.3365 -12.0909 -11.9368 -11.8553
   -11.5003 -11.4026 -10.6524 -10.6076 -10.4073 -10.2467 -10.1518  -9.5144
    -9.2420  -9.0618  -8.9494  -8.8263  -8.7356  -8.4843  -8.4063  -8.3129
    -8.2839  -8.2561  -8.2382  -8.0670  -7.9671  -7.9374  -7.9029  -7.8774
    -7.8399  -7.7980  -7.7462  -7.6841  -7.6799  -7.4995  -7.2943  -7.1032
    -7.0486  -7.0092  -6.9858  -6.7193  -6.6403  -6.6054  -6.5343  -6.5141
    -6.4750  -6.2749  -6.0216  -5.8834  -5.8589  -5.8030  -5.7418  -5.7361
    -5.6337  -5.6093  -5.5034  -5.4729  -5.3903  -5.3866  -5.3359  -5.3307
    -5.2612  -5.2256  -5.2082  -5.1962  -5.1933  -5.0621  -5.0486  -4.9668
    -4.9514  -4.9429  -4.8043  -4.7929  -4.7809  -4.7699  -4.6714  -4.5385
    -4.5341  -4.5236  -4.4256  -4.4090  -4.2556  -4.2482  -4.2049  -4.1989
    -4.1290  -4.1071  -4.0849  -4.0755  -3.8354  -3.8336  -3.8075  -3.7919
    -3.5882  -3.5502  -3.5411  -3.5064  -3.4972  -3.4084  -3.3998  -3.3945
    -3.3841  -3.3733  -3.3584  -3.3041  -3.2682  -3.2598  -3.2367  -3.1889
    -3.1346  -3.0093  -2.9844  -2.9441  -2.9374  -2.9303  -2.8937  -2.7726
    -2.7601  -2.6881  -2.6530  -2.4490  -0.4441  -0.4079  -0.3735  -0.2692
     0.2712   0.3725   0.4330   0.5236   0.5389   0.6780   0.7912   0.8501
     0.9003   0.9243   0.9607   0.9637   0.9726   1.0658   1.1673   1.2242
     1.3075   1.3852   1.4515   1.5149   1.7429   1.8721   1.9382   1.9886
     2.0719   2.1683   2.1923   2.1994   2.2193   2.2644   2.2879   2.5086
     2.5539   2.5659   2.6146   2.6396   2.9162   2.9750   2.9841   3.0191
     3.0648   3.1073   3.1589   3.1878   3.2268   3.2491   3.2887   3.3230
     3.4220   3.4615   3.5183   3.5628   3.6321   3.6889   3.7449   3.7713
     3.8490   3.9486   3.9632   4.0164   4.1027   4.2086   4.2355   4.2556
     4.2858   4.3270   4.3943   4.4175

          k = 0.0833-0.2406-0.2308 ( 96078 PWs)   bands (ev):

  -113.7098-113.7086-113.7069-113.7052 -71.1819 -71.1812 -71.1808 -71.1800
   -71.1791 -71.1786 -71.1771 -71.1766 -71.0114 -71.0102 -71.0080 -71.0069
   -24.3583 -22.0550 -19.1046 -18.2556 -18.1253 -18.1164 -18.1017 -17.8687
   -17.2966 -17.2949 -17.2925 -17.2648 -16.8671 -16.8431 -16.8369 -16.8324
   -16.8315 -16.6232 -16.6117 -16.5952 -16.5791 -16.5786 -16.5781 -16.5755
   -16.5747 -16.5664 -16.5643 -16.5626 -16.5458 -16.4894 -16.4761 -16.4498
   -16.0322 -15.7724 -15.7382 -15.7205 -15.3845 -15.3509 -15.3227 -15.2408
   -15.1924 -15.0477 -15.0129 -14.9995 -14.9542 -14.7176 -14.7009 -14.6862
   -14.6313 -14.5909 -14.4992 -13.1749 -12.4799 -11.9678 -11.9344 -11.8810
   -11.5003 -11.4026 -10.7189 -10.6447 -10.2933 -10.2561 -10.1939  -9.5144
    -9.2423  -9.1192  -8.8948  -8.8656  -8.8167  -8.4843  -8.4062  -8.2555
    -8.2179  -8.1835  -8.1706  -8.0674  -8.0483  -7.9245  -7.9003  -7.8632
    -7.8395  -7.6609  -7.6391  -7.6180  -7.5947  -7.4998  -7.4300  -7.0523
    -7.0094  -6.9741  -6.9450  -6.7241  -6.7093  -6.7028  -6.6822  -6.6788
    -6.4746  -6.2751  -6.0247  -5.9400  -5.9328  -5.9275  -5.7280  -5.7231
    -5.6862  -5.6074  -5.4941  -5.4087  -5.4019  -5.3897  -5.3714  -5.3327
    -5.2609  -5.2514  -5.1926  -5.1885  -5.1787  -5.0050  -4.9875  -4.9844
    -4.9583  -4.9516  -4.7720  -4.7398  -4.7089  -4.7031  -4.6686  -4.5636
    -4.5551  -4.5492  -4.4177  -4.3842  -4.2975  -4.2705  -4.2499  -4.2283
    -4.1870  -4.1501  -4.1428  -4.1343  -3.8229  -3.8119  -3.7980  -3.6470
    -3.6303  -3.6142  -3.6023  -3.4973  -3.4343  -3.4236  -3.4109  -3.3828
    -3.3717  -3.3636  -3.3246  -3.3141  -3.2791  -3.2677  -3.2192  -3.2120
    -3.1769  -2.9702  -2.9479  -2.9218  -2.8939  -2.8400  -2.7779  -2.7612
    -2.7056  -2.6880  -2.5707  -2.4510  -0.6126  -0.4035  -0.3398  -0.3003
     0.3098   0.3851   0.4594   0.5274   0.5830   0.6590   0.7105   0.7636
     0.8242   0.8703   0.9474   0.9761   1.0095   1.0334   1.0360   1.3112
     1.3574   1.4487   1.4625   1.5352   1.7707   1.8290   1.8461   1.9941
     2.1249   2.1797   2.2399   2.2483   2.2702   2.2802   2.2954   2.4203
     2.5492   2.6538   2.6630   2.6954   2.9124   2.9461   2.9771   2.9889
     3.0274   3.0795   3.1176   3.1428   3.1838   3.2279   3.2492   3.4186
     3.4855   3.5201   3.5736   3.6105   3.6603   3.7091   3.7524   3.7958
     3.8947   3.9690   4.0215   4.0479   4.1113   4.1786   4.2069   4.2229
     4.2482   4.2770   4.3224   4.3493

          k = 0.0833-0.0481-0.2308 ( 96016 PWs)   bands (ev):

  -113.7098-113.7086-113.7069-113.7052 -71.1819 -71.1812 -71.1808 -71.1800
   -71.1791 -71.1786 -71.1771 -71.1766 -71.0114 -71.0102 -71.0080 -71.0069
   -24.3583 -22.0550 -19.1046 -18.2706 -18.1115 -18.1093 -18.1040 -17.8687
   -17.2990 -17.2981 -17.2963 -17.2573 -16.8693 -16.8632 -16.8277 -16.8233
   -16.8224 -16.6119 -16.6080 -16.6075 -16.5794 -16.5791 -16.5782 -16.5762
   -16.5756 -16.5650 -16.5631 -16.5618 -16.5474 -16.4716 -16.4671 -16.4654
   -16.0322 -15.7828 -15.7814 -15.7756 -15.3388 -15.3353 -15.3280 -15.1812
   -15.1734 -15.0516 -15.0483 -15.0422 -14.9543 -14.7041 -14.6971 -14.6944
   -14.5842 -14.5801 -14.4990 -13.1750 -12.5530 -11.9222 -11.9117 -11.9084
   -11.5003 -11.4026 -10.7665 -10.6457 -10.2505 -10.2395 -10.2344  -9.5145
    -9.2425  -9.1454  -8.8801  -8.8741  -8.8709  -8.4842  -8.4062  -8.1878
    -8.1809  -8.1743  -8.1146  -8.0956  -8.0624  -7.8737  -7.8657  -7.8621
    -7.8396  -7.5856  -7.5833  -7.5768  -7.5218  -7.5028  -7.4894  -7.0151
    -6.9616  -6.9515  -6.9361  -6.8107  -6.8004  -6.7937  -6.7857  -6.7164
    -6.4744  -6.2752  -6.0293  -5.9866  -5.9809  -5.9762  -5.7169  -5.7134
    -5.7080  -5.6423  -5.4935  -5.4096  -5.4056  -5.3910  -5.3600  -5.3089
    -5.2964  -5.2495  -5.1840  -5.1804  -5.1750  -4.9860  -4.9771  -4.9738
    -4.9341  -4.9263  -4.7689  -4.6965  -4.6920  -4.6832  -4.6604  -4.5511
    -4.5481  -4.5459  -4.4181  -4.3356  -4.2910  -4.2866  -4.2718  -4.2629
    -4.2311  -4.2079  -4.2046  -4.1882  -3.8325  -3.8290  -3.8266  -3.6692
    -3.6647  -3.6617  -3.5417  -3.4872  -3.4712  -3.4089  -3.3832  -3.3802
    -3.3690  -3.3291  -3.3256  -3.3189  -3.2658  -3.2579  -3.2532  -3.1503
    -3.1248  -2.9354  -2.9317  -2.9243  -2.8937  -2.7668  -2.7566  -2.7340
    -2.7335  -2.5387  -2.5159  -2.4531  -0.7698  -0.3558  -0.3522  -0.3362
     0.2062   0.4877   0.4921   0.5236   0.5681   0.5713   0.5818   0.7985
     0.8067   0.8159   1.0008   1.0078   1.0182   1.0205   1.0220   1.3051
     1.4569   1.4660   1.4790   1.5442   1.7950   1.8048   1.8137   1.9987
     2.1597   2.2104   2.2422   2.2763   2.3238   2.3383   2.3508   2.3601
     2.5095   2.6331   2.6494   2.6535   2.9064   2.9945   3.0059   3.0146
     3.0333   3.0444   3.0697   3.1494   3.1773   3.2090   3.2875   3.4499
     3.4637   3.4856   3.5636   3.6351   3.7157   3.7635   3.8006   3.8442
     3.8867   3.9437   4.0115   4.0372   4.0938   4.1430   4.1688   4.1968
     4.2021   4.2493   4.2878   4.3125

          k = 0.2500 0.4330-0.2308 ( 96066 PWs)   bands (ev):

  -113.7098-113.7086-113.7069-113.7052 -71.1819 -71.1812 -71.1808 -71.1800
   -71.1791 -71.1786 -71.1771 -71.1766 -71.0114 -71.0102 -71.0080 -71.0069
   -24.3583 -22.0550 -19.1046 -18.2110 -18.1549 -18.1488 -18.0904 -17.8687
   -17.2920 -17.2891 -17.2831 -17.2798 -16.8712 -16.8607 -16.8546 -16.8512
   -16.7467 -16.6475 -16.6463 -16.5803 -16.5783 -16.5775 -16.5764 -16.5745
   -16.5732 -16.5698 -16.5681 -16.5628 -16.5388 -16.5131 -16.5130 -16.4080
   -16.0322 -15.7503 -15.6054 -15.6007 -15.4927 -15.4039 -15.3340 -15.3259
   -15.2513 -15.0422 -14.9543 -14.9181 -14.9107 -14.7610 -14.7566 -14.6786
   -14.6736 -14.6251 -14.4992 -13.1749 -12.2836 -12.0558 -12.0523 -11.8164
   -11.5003 -11.4026 -10.6508 -10.5669 -10.3703 -10.3644 -10.1018  -9.5145
    -9.2420  -9.0366  -8.9149  -8.9127  -8.6666  -8.4844  -8.4065  -8.3387
    -8.3215  -8.2872  -8.1310  -8.0783  -8.0632  -7.9262  -7.8770  -7.8558
    -7.8472  -7.8377  -7.7417  -7.7363  -7.7228  -7.4993  -7.2317  -7.1842
    -7.0215  -7.0071  -6.9907  -6.7189  -6.6145  -6.5598  -6.5189  -6.4849
    -6.4748  -6.2752  -6.0206  -5.8248  -5.8212  -5.7906  -5.7637  -5.6894
    -5.6558  -5.6338  -5.5312  -5.4849  -5.4058  -5.3546  -5.3358  -5.3183
    -5.2602  -5.2419  -5.1960  -5.1844  -5.1780  -5.0544  -5.0482  -4.9885
    -4.9701  -4.9434  -4.8440  -4.8262  -4.8146  -4.7687  -4.6711  -4.5426
    -4.5021  -4.4928  -4.4253  -4.4048  -4.2681  -4.2572  -4.1912  -4.1492
    -4.1202  -4.0863  -4.0797  -4.0719  -3.8582  -3.8406  -3.8305  -3.8211
    -3.5861  -3.5581  -3.5293  -3.5039  -3.4730  -3.4421  -3.4370  -3.3921
    -3.3869  -3.3614  -3.3398  -3.3145  -3.2419  -3.2350  -3.2227  -3.1943
    -3.1468  -3.0193  -3.0131  -3.0008  -2.9458  -2.8958  -2.8867  -2.8365
    -2.7613  -2.7151  -2.5843  -2.4470  -0.4831  -0.3708  -0.3122  -0.3058
     0.1839   0.4382   0.4447   0.4538   0.4724   0.7452   0.8476   0.8710
     0.9341   0.9425   0.9448   0.9569   1.0388   1.0660   1.0818   1.1330
     1.3199   1.4353   1.4722   1.4927   1.6765   1.9830   1.9898   2.0112
     2.0989   2.1608   2.1739   2.1881   2.2078   2.2610   2.2812   2.5132
     2.5343   2.5655   2.5984   2.6350   2.9576   2.9719   3.0070   3.0324
     3.0542   3.1018   3.1348   3.2256   3.2648   3.2781   3.2948   3.3473
     3.3956   3.4261   3.4733   3.4955   3.6148   3.7082   3.7794   3.7916
     3.8725   3.8973   3.9584   4.0263   4.0660   4.1086   4.2140   4.2748
     4.2853   4.3382   4.3598   4.4111

          k = 0.2500 0.6255-0.2308 ( 96114 PWs)   bands (ev):

  -113.7098-113.7086-113.7069-113.7052 -71.1819 -71.1812 -71.1808 -71.1800
   -71.1791 -71.1786 -71.1771 -71.1766 -71.0114 -71.0102 -71.0080 -71.0069
   -24.3583 -22.0550 -19.1046 -18.1922 -18.1716 -18.1539 -18.0882 -17.8687
   -17.2904 -17.2879 -17.2842 -17.2806 -16.8753 -16.8600 -16.8566 -16.8553
   -16.7116 -16.6770 -16.6477 -16.5785 -16.5781 -16.5773 -16.5761 -16.5749
   -16.5727 -16.5705 -16.5684 -16.5627 -16.5337 -16.5255 -16.5142 -16.4001
   -16.0322 -15.7449 -15.5855 -15.5380 -15.5132 -15.4683 -15.3396 -15.3022
   -15.2787 -15.0414 -14.9543 -14.9044 -14.8659 -14.8092 -14.7655 -14.6779
   -14.6571 -14.6420 -14.4992 -13.1749 -12.2061 -12.1280 -12.0604 -11.8053
   -11.5003 -11.4026 -10.6494 -10.5045 -10.4356 -10.3709 -10.0854  -9.5144
    -9.2420  -8.9977  -8.9558  -8.9100  -8.6322  -8.4844  -8.4066  -8.3403
    -8.3367  -8.3150  -8.1485  -8.0752  -8.0500  -7.9131  -7.8877  -7.8509
    -7.8471  -7.8389  -7.7773  -7.7606  -7.7488  -7.4994  -7.2061  -7.1512
    -7.0718  -7.0167  -6.9971  -6.7192  -6.6033  -6.5197  -6.4975  -6.4756
    -6.4631  -6.2750  -6.0210  -5.8101  -5.7841  -5.7529  -5.7478  -5.6871
    -5.6799  -5.6247  -5.5908  -5.4848  -5.3982  -5.3457  -5.3232  -5.3158
    -5.2783  -5.2447  -5.1763  -5.1736  -5.1670  -5.0742  -5.0666  -5.0115
    -4.9311  -4.9222  -4.8703  -4.8594  -4.8567  -4.7703  -4.6705  -4.5398
    -4.4797  -4.4689  -4.4352  -4.4112  -4.2581  -4.2290  -4.2175  -4.1379
    -4.1028  -4.0751  -4.0705  -4.0549  -3.8830  -3.8705  -3.8579  -3.8352
    -3.5677  -3.5474  -3.5313  -3.5274  -3.4549  -3.4409  -3.4260  -3.3867
    -3.3808  -3.3636  -3.3540  -3.3344  -3.2241  -3.2126  -3.2073  -3.1753
    -3.1446  -3.0854  -3.0609  -3.0117  -2.9430  -2.8941  -2.8479  -2.8316
    -2.7727  -2.7531  -2.5646  -2.4487  -0.4918  -0.3306  -0.3228  -0.3074
     0.1477   0.4106   0.4357   0.4609   0.4744   0.7519   0.8571   0.9099
     0.9206   0.9275   0.9467   0.9748   1.0294   1.0855   1.0943   1.1868
     1.2423   1.4550   1.4621   1.5029   1.6452   1.9830   2.0562   2.0793
     2.1012   2.1563   2.1806   2.1851   2.2035   2.2234   2.2674   2.5132
     2.5297   2.5437   2.5502   2.6621   2.9202   2.9661   3.0313   3.0445
     3.0976   3.1107   3.1634   3.2274   3.2488   3.2956   3.3099   3.3430
     3.3723   3.4044   3.4353   3.5175   3.5893   3.7342   3.7551   3.7820
     3.8254   3.8754   3.9627   4.0003   4.1161   4.1740   4.2463   4.2614
     4.2978   4.3419   4.3719   4.4449

          k = 0.2500-0.3368-0.2308 ( 96066 PWs)   bands (ev):

  -113.7098-113.7086-113.7069-113.7052 -71.1819 -71.1812 -71.1808 -71.1800
   -71.1791 -71.1786 -71.1771 -71.1766 -71.0114 -71.0102 -71.0080 -71.0069
   -24.3583 -22.0550 -19.1046 -18.2278 -18.1473 -18.1339 -18.0944 -17.8687
   -17.2929 -17.2915 -17.2858 -17.2753 -16.8652 -16.8616 -16.8500 -16.8454
   -16.7780 -16.6455 -16.6235 -16.5836 -16.5786 -16.5776 -16.5771 -16.5751
   -16.5741 -16.5681 -16.5672 -16.5627 -16.5420 -16.5102 -16.4958 -16.4229
   -16.0322 -15.7549 -15.6665 -15.6288 -15.4599 -15.3473 -15.3457 -15.3228
   -15.2272 -15.0418 -14.9668 -14.9542 -14.9250 -14.7453 -14.7119 -14.6883
   -14.6788 -14.6131 -14.4993 -13.1749 -12.3546 -12.0415 -11.9888 -11.8377
   -11.5003 -11.4026 -10.6542 -10.6191 -10.3591 -10.3045 -10.1317  -9.5144
    -9.2421  -9.0685  -8.9170  -8.8754  -8.7219  -8.4844  -8.4064  -8.3202
    -8.2991  -8.2515  -8.1444  -8.0675  -8.0425  -7.9707  -7.8894  -7.8516
    -7.8398  -7.7856  -7.7155  -7.6920  -7.6813  -7.4995  -7.3084  -7.1413
    -7.0158  -6.9995  -6.9617  -6.7196  -6.6332  -6.6307  -6.5423  -6.5317
    -6.4749  -6.2750  -6.0226  -5.8782  -5.8470  -5.8310  -5.7615  -5.6894
    -5.6788  -5.6039  -5.4986  -5.4646  -5.4161  -5.3642  -5.3478  -5.3210
    -5.2540  -5.2260  -5.2174  -5.1966  -5.1889  -5.0378  -5.0257  -4.9778
    -4.9730  -4.9561  -4.8122  -4.7912  -4.7696  -4.7639  -4.6700  -4.5461
    -4.5218  -4.5194  -4.4216  -4.4102  -4.2792  -4.2705  -4.1911  -4.1720
    -4.1401  -4.1095  -4.0979  -4.0830  -3.8412  -3.8201  -3.7986  -3.7668
    -3.6031  -3.5837  -3.5222  -3.4971  -3.4822  -3.4555  -3.4216  -3.3900
    -3.3802  -3.3719  -3.3337  -3.3068  -3.2754  -3.2460  -3.2361  -3.1895
    -3.1448  -3.0246  -2.9763  -2.9428  -2.9156  -2.8938  -2.8590  -2.8542
    -2.7615  -2.6701  -2.6172  -2.4500  -0.4641  -0.4313  -0.3252  -0.2895
     0.2448   0.4174   0.4554   0.4830   0.4905   0.7363   0.8035   0.8317
     0.9110   0.9415   0.9595   0.9881   0.9945   1.0308   1.0334   1.2145
     1.3534   1.4045   1.4832   1.4917   1.7261   1.9007   1.9288   1.9952
     2.0951   2.1653   2.1857   2.2011   2.2143   2.2649   2.3004   2.4821
     2.5667   2.5979   2.6121   2.6664   2.9195   2.9743   2.9842   3.0029
     3.0401   3.0843   3.1514   3.2119   3.2278   3.2638   3.2870   3.3296
     3.4141   3.4701   3.4853   3.5596   3.6636   3.7139   3.7595   3.7992
     3.8530   3.9643   3.9864   4.0298   4.1286   4.1547   4.1941   4.2423
     4.3028   4.3352   4.3669   4.3813

          k = 0.2500-0.1443-0.2308 ( 96098 PWs)   bands (ev):

  -113.7098-113.7086-113.7069-113.7052 -71.1819 -71.1812 -71.1808 -71.1800
   -71.1791 -71.1786 -71.1771 -71.1766 -71.0114 -71.0102 -71.0080 -71.0069
   -24.3583 -22.0550 -19.1046 -18.2507 -18.1334 -18.1109 -18.1048 -17.8687
   -17.2958 -17.2939 -17.2915 -17.2669 -16.8664 -16.8458 -16.8420 -16.8336
   -16.8229 -16.6335 -16.6004 -16.5991 -16.5790 -16.5781 -16.5775 -16.5758
   -16.5749 -16.5665 -16.5652 -16.5624 -16.5453 -16.4987 -16.4605 -16.4591
   -16.0322 -15.7541 -15.7502 -15.6934 -15.3840 -15.3763 -15.3129 -15.2609
   -15.1971 -15.0353 -15.0278 -14.9729 -14.9542 -14.7171 -14.7070 -14.6828
   -14.6437 -14.5968 -14.4992 -13.1749 -12.4573 -11.9978 -11.9014 -11.8979
   -11.5003 -11.4026 -10.7042 -10.6438 -10.3229 -10.2166 -10.2115  -9.5144
    -9.2423  -9.1106  -8.9094  -8.8293  -8.8254  -8.4843  -8.4063  -8.2651
    -8.2315  -8.1964  -8.1857  -8.0662  -8.0370  -7.9347  -7.8894  -7.8754
    -7.8398  -7.6750  -7.6730  -7.6237  -7.6116  -7.4994  -7.4100  -7.0322
    -7.0177  -6.9931  -6.9672  -6.7226  -6.7071  -6.6723  -6.6487  -6.6451
    -6.4745  -6.2751  -6.0243  -5.9253  -5.9198  -5.9119  -5.7393  -5.7142
    -5.6820  -5.6014  -5.4933  -5.4140  -5.4020  -5.3874  -5.3716  -5.3344
    -5.2536  -5.2479  -5.1994  -5.1905  -5.1864  -5.0104  -4.9964  -4.9885
    -4.9552  -4.9527  -4.7728  -4.7430  -4.7305  -4.7094  -4.6685  -4.5626
    -4.5530  -4.5464  -4.4183  -4.3930  -4.2942  -4.2607  -4.2411  -4.2344
    -4.1629  -4.1496  -4.1362  -4.1151  -3.8173  -3.8126  -3.7988  -3.6396
    -3.6298  -3.6159  -3.6004  -3.5003  -3.4638  -3.4079  -3.3907  -3.3857
    -3.3678  -3.3523  -3.3396  -3.3320  -3.3016  -3.2367  -3.2182  -3.2068
    -3.1957  -2.9788  -2.9489  -2.9242  -2.8938  -2.8819  -2.7669  -2.7418
    -2.7237  -2.7183  -2.5950  -2.4510  -0.5714  -0.3884  -0.3823  -0.2772
     0.3366   0.3921   0.4059   0.5372   0.6101   0.6360   0.7563   0.7731
     0.8014   0.8994   0.9458   0.9547   1.0104   1.0347   1.0557   1.3152
     1.3596   1.3967   1.4772   1.5309   1.7875   1.8045   1.8601   1.9964
     2.1173   2.1727   2.2141   2.2515   2.2613   2.2672   2.3014   2.4349
     2.5593   2.6264   2.6555   2.7043   2.9147   2.9317   2.9800   3.0087
     3.0381   3.0484   3.1183   3.1517   3.1982   3.2162   3.2735   3.4294
     3.4588   3.4956   3.5642   3.6272   3.6449   3.6716   3.8058   3.8266
     3.8732   3.9688   4.0312   4.0545   4.0865   4.1620   4.1889   4.2437
     4.2846   4.2981   4.3261   4.3649

          k = 0.4167 0.7217-0.2308 ( 96084 PWs)   bands (ev):

  -113.7098-113.7086-113.7069-113.7052 -71.1819 -71.1812 -71.1808 -71.1800
   -71.1791 -71.1786 -71.1771 -71.1766 -71.0114 -71.0102 -71.0080 -71.0069
   -24.3583 -22.0550 -19.1046 -18.1914 -18.1853 -18.1371 -18.0917 -17.8687
   -17.2899 -17.2873 -17.2842 -17.2820 -16.8726 -16.8586 -16.8581 -16.8539
   -16.7092 -16.7051 -16.6229 -16.5808 -16.5784 -16.5764 -16.5758 -16.5751
   -16.5739 -16.5699 -16.5683 -16.5628 -16.5334 -16.5316 -16.4978 -16.4109
   -16.0322 -15.7398 -15.6337 -15.4979 -15.4893 -15.4847 -15.3727 -15.2771
   -15.2726 -15.0370 -14.9545 -14.9473 -14.8243 -14.8131 -14.7578 -14.6931
   -14.6479 -14.6432 -14.4993 -13.1749 -12.1953 -12.1921 -11.9951 -11.8202
   -11.5003 -11.4026 -10.6496 -10.4980 -10.4912 -10.3052 -10.1050  -9.5144
    -9.2421  -8.9942  -8.9927  -8.8616  -8.6624  -8.4844  -8.4066  -8.3404
    -8.3174  -8.3093  -8.2000  -8.0675  -8.0004  -7.8992  -7.8883  -7.8856
    -7.8405  -7.8364  -7.7931  -7.7331  -7.7279  -7.4994  -7.1723  -7.1481
    -7.1375  -7.0117  -6.9703  -6.7194  -6.6072  -6.5732  -6.4798  -6.4742
    -6.4598  -6.2751  -6.0220  -5.8522  -5.7991  -5.7553  -5.7033  -5.7000
    -5.6982  -5.5998  -5.5823  -5.4858  -5.3956  -5.3562  -5.3302  -5.3029
    -5.2635  -5.2432  -5.2053  -5.1939  -5.1774  -5.0769  -5.0583  -4.9905
    -4.9315  -4.9035  -4.8893  -4.8415  -4.8228  -4.7707  -4.6698  -4.5390
    -4.4992  -4.4704  -4.4466  -4.4137  -4.2628  -4.2252  -4.1991  -4.1579
    -4.1080  -4.0894  -4.0633  -4.0491  -3.8887  -3.8786  -3.8574  -3.8106
    -3.5503  -3.5438  -3.5397  -3.5081  -3.4583  -3.4365  -3.4205  -3.3889
    -3.3840  -3.3781  -3.3641  -3.3429  -3.2448  -3.2023  -3.1899  -3.1709
    -3.1444  -3.0836  -3.0549  -2.9869  -2.9571  -2.8940  -2.8283  -2.8235
    -2.7830  -2.7600  -2.5928  -2.4491  -0.4805  -0.3514  -0.3146  -0.3077
     0.1799   0.3986   0.4440   0.4725   0.4888   0.7665   0.7838   0.8947
     0.9159   0.9433   0.9563   0.9884   1.0292   1.0567   1.1274   1.2040
     1.2901   1.4022   1.4486   1.5102   1.6796   1.9621   1.9819   2.0509
     2.0728   2.1686   2.1792   2.1915   2.2213   2.2456   2.2653   2.5092
     2.5157   2.5277   2.5877   2.6606   2.8916   2.9842   3.0192   3.0303
     3.0986   3.1340   3.1819   3.1940   3.2555   3.2994   3.3078   3.3250
     3.3733   3.3987   3.4166   3.5116   3.6308   3.7533   3.7908   3.8176
     3.8400   3.8649   3.9529   4.0048   4.1087   4.1789   4.1952   4.2725
     4.2897   4.3505   4.4181   4.4765

          k = 0.4167-0.2406-0.2308 ( 96042 PWs)   bands (ev):

  -113.7098-113.7086-113.7069-113.7052 -71.1819 -71.1812 -71.1808 -71.1800
   -71.1791 -71.1786 -71.1771 -71.1766 -71.0114 -71.0102 -71.0080 -71.0069
   -24.3583 -22.0550 -19.1046 -18.2153 -18.1720 -18.1116 -18.1055 -17.8687
   -17.2902 -17.2888 -17.2865 -17.2794 -16.8635 -16.8600 -16.8587 -16.8472
   -16.7563 -16.6845 -16.5947 -16.5925 -16.5787 -16.5767 -16.5761 -16.5753
   -16.5744 -16.5692 -16.5670 -16.5631 -16.5397 -16.5261 -16.4537 -16.4525
   -16.0323 -15.7155 -15.7121 -15.5550 -15.4342 -15.4279 -15.3974 -15.2801
   -15.2370 -15.0147 -15.0090 -14.9542 -14.8634 -14.7456 -14.7319 -14.7202
   -14.6572 -14.6252 -14.4993 -13.1749 -12.3018 -12.1344 -11.8907 -11.8872
   -11.5003 -11.4026 -10.6509 -10.5824 -10.4462 -10.1931 -10.1880  -9.5144
    -9.2421  -9.0466  -8.9703  -8.7718  -8.7674  -8.4844  -8.4065  -8.3073
    -8.2912  -8.2708  -8.2663  -8.0675  -7.9507  -7.9254  -7.8950  -7.8776
    -7.8406  -7.8069  -7.7890  -7.6922  -7.6846  -7.4994  -7.2621  -7.0930
    -7.0489  -7.0416  -6.9977  -6.7197  -6.6351  -6.6144  -6.4948  -6.4921
    -6.4741  -6.2751  -6.0228  -5.8744  -5.8658  -5.7619  -5.7477  -5.7286
    -5.6251  -5.6190  -5.5156  -5.4826  -5.3992  -5.3699  -5.3298  -5.3229
    -5.2507  -5.2287  -5.2147  -5.2121  -5.2086  -5.0754  -5.0420  -4.9693
    -4.9402  -4.9233  -4.8217  -4.8068  -4.7837  -4.7704  -4.6694  -4.5381
    -4.5271  -4.5124  -4.4435  -4.4150  -4.2420  -4.2358  -4.2221  -4.1834
    -4.1164  -4.1114  -4.0748  -4.0597  -3.8646  -3.8335  -3.8210  -3.8186
    -3.5618  -3.5469  -3.5228  -3.5090  -3.4714  -3.4265  -3.4106  -3.3982
    -3.3828  -3.3624  -3.3493  -3.3258  -3.3113  -3.2292  -3.2070  -3.1707
    -3.1378  -3.0419  -3.0066  -2.9617  -2.9547  -2.8942  -2.8851  -2.7641
    -2.7364  -2.7107  -2.7042  -2.4494  -0.4218  -0.4148  -0.3695  -0.2692
     0.3029   0.3093   0.4579   0.5203   0.5840   0.6102   0.8150   0.8452
     0.9110   0.9304   0.9499   0.9747   1.0149   1.0534   1.1984   1.2701
     1.2973   1.3227   1.4682   1.4867   1.7953   1.8128   1.9313   1.9985
     2.0616   2.1696   2.1899   2.1978   2.2144   2.2642   2.2883   2.5083
     2.5259   2.5387   2.6171   2.6485   2.8942   2.9838   3.0106   3.0210
     3.0633   3.0774   3.1680   3.2244   3.2281   3.2758   3.2900   3.3588
     3.3708   3.4178   3.4612   3.5658   3.6235   3.7590   3.8066   3.8263
     3.8400   3.9369   3.9808   4.0083   4.0540   4.1496   4.2456   4.2709
     4.2850   4.3073   4.4004   4.4535

          k =-0.0833 0.1443 0.2308 ( 95992 PWs)   bands (ev):

  -113.7098-113.7086-113.7069-113.7052 -71.1819 -71.1812 -71.1808 -71.1800
   -71.1791 -71.1786 -71.1771 -71.1766 -71.0114 -71.0102 -71.0080 -71.0069
   -24.3583 -22.0550 -19.1046 -18.2655 -18.1145 -18.1133 -18.1033 -17.8687
   -17.2980 -17.2969 -17.2951 -17.2600 -16.8686 -16.8527 -16.8331 -16.8280
   -16.8263 -16.6136 -16.6122 -16.6016 -16.5793 -16.5789 -16.5782 -16.5759
   -16.5753 -16.5654 -16.5636 -16.5621 -16.5469 -16.4757 -16.4737 -16.4588
   -16.0322 -15.7806 -15.7617 -15.7598 -15.3569 -15.3348 -15.3308 -15.2015
   -15.1800 -15.0506 -15.0336 -15.0288 -14.9543 -14.7087 -14.6973 -14.6930
   -14.6011 -14.5831 -14.4991 -13.1750 -12.5277 -11.9314 -11.9281 -11.8962
   -11.5003 -11.4026 -10.7502 -10.6455 -10.2567 -10.2563 -10.2170  -9.5145
    -9.2424  -9.1366  -8.8805  -8.8772  -8.8503  -8.4842  -8.4062  -8.2128
    -8.1990  -8.1723  -8.1348  -8.0814  -8.0624  -7.8973  -7.8784  -7.8613
    -7.8396  -7.6125  -7.5982  -7.5949  -7.5490  -7.5009  -7.4715  -7.0214
    -6.9965  -6.9552  -6.9397  -6.7724  -6.7609  -6.7534  -6.7439  -6.7151
    -6.4745  -6.2751  -6.0273  -5.9691  -5.9647  -5.9606  -5.7223  -5.7138
    -5.7019  -5.6280  -5.4937  -5.4111  -5.4039  -5.3866  -5.3667  -5.3194
    -5.2829  -5.2502  -5.1859  -5.1829  -5.1768  -4.9931  -4.9800  -4.9657
    -4.9539  -4.9389  -4.7700  -4.7108  -4.6950  -4.6853  -4.6638  -4.5593
    -4.5551  -4.5499  -4.4178  -4.3622  -4.2917  -4.2830  -4.2738  -4.2437
    -4.2053  -4.1927  -4.1744  -4.1649  -3.8270  -3.8207  -3.8140  -3.6596
    -3.6583  -3.6443  -3.5580  -3.4923  -3.4536  -3.4123  -3.3914  -3.3782
    -3.3669  -3.3469  -3.3309  -3.3190  -3.2719  -3.2453  -3.2372  -3.2032
    -3.1423  -2.9507  -2.9328  -2.9241  -2.8937  -2.7810  -2.7715  -2.7565
    -2.7109  -2.6011  -2.5345  -2.4523  -0.7101  -0.3776  -0.3338  -0.3300
     0.2460   0.4400   0.5015   0.5137   0.5781   0.6133   0.6204   0.7814
     0.8233   0.8285   0.9743   1.0049   1.0126   1.0190   1.0252   1.3060
     1.4229   1.4537   1.4766   1.5414   1.7840   1.8146   1.8218   1.9969
     2.1478   2.1923   2.2449   2.2816   2.2982   2.3049   2.3321   2.3712
     2.5239   2.6499   2.6682   2.6774   2.9093   2.9783   2.9915   3.0004
     3.0142   3.0640   3.0909   3.1460   3.1748   3.2180   3.2576   3.4460
     3.4821   3.5071   3.5755   3.6063   3.7053   3.7482   3.7590   3.8285
     3.9307   3.9596   3.9923   4.0444   4.0921   4.1376   4.2022   4.2185
     4.2283   4.2397   4.2997   4.3233

          k = 0.1667 0.0000-0.2308 ( 95992 PWs)   bands (ev):

  -113.7098-113.7086-113.7069-113.7052 -71.1819 -71.1812 -71.1808 -71.1800
   -71.1791 -71.1786 -71.1771 -71.1766 -71.0114 -71.0102 -71.0080 -71.0069
   -24.3583 -22.0550 -19.1046 -18.2655 -18.1154 -18.1122 -18.1036 -17.8687
   -17.2980 -17.2972 -17.2948 -17.2600 -16.8682 -16.8531 -16.8333 -16.8280
   -16.8262 -16.6132 -16.6120 -16.6021 -16.5793 -16.5789 -16.5780 -16.5760
   -16.5753 -16.5655 -16.5635 -16.5620 -16.5468 -16.4760 -16.4735 -16.4588
   -16.0322 -15.7809 -15.7617 -15.7596 -15.3570 -15.3347 -15.3306 -15.2019
   -15.1796 -15.0516 -15.0326 -15.0290 -14.9543 -14.7079 -14.6971 -14.6939
   -14.5996 -14.5846 -14.4991 -13.1750 -12.5278 -11.9316 -11.9285 -11.8957
   -11.5003 -11.4026 -10.7503 -10.6454 -10.2582 -10.2540 -10.2178  -9.5145
    -9.2424  -9.1366  -8.8809  -8.8764  -8.8506  -8.4842  -8.4063  -8.2123
    -8.1995  -8.1728  -8.1346  -8.0801  -8.0629  -7.8963  -7.8782  -7.8631
    -7.8395  -7.6136  -7.5983  -7.5938  -7.5527  -7.4981  -7.4706  -7.0208
    -6.9984  -6.9513  -6.9410  -6.7755  -6.7609  -6.7509  -6.7446  -6.7149
    -6.4744  -6.2752  -6.0264  -5.9721  -5.9663  -5.9569  -5.7228  -5.7139
    -5.7013  -5.6282  -5.4932  -5.4087  -5.4019  -5.3912  -5.3679  -5.3191
    -5.2837  -5.2485  -5.1862  -5.1835  -5.1763  -4.9912  -4.9816  -4.9657
    -4.9551  -4.9383  -4.7702  -4.7092  -4.6954  -4.6859  -4.6632  -4.5600
    -4.5533  -4.5518  -4.4183  -4.3579  -4.2952  -4.2796  -4.2773  -4.2466
    -4.2050  -4.1926  -4.1725  -4.1647  -3.8263  -3.8219  -3.8134  -3.6602
    -3.6581  -3.6439  -3.5580  -3.4930  -3.4532  -3.4098  -3.3981  -3.3748
    -3.3680  -3.3461  -3.3298  -3.3182  -3.2724  -3.2454  -3.2372  -3.2010
    -3.1443  -2.9502  -2.9328  -2.9251  -2.8936  -2.7762  -2.7723  -2.7601
    -2.7112  -2.6009  -2.5350  -2.4520  -0.7100  -0.3791  -0.3330  -0.3295
     0.2461   0.4391   0.5012   0.5163   0.5793   0.6119   0.6203   0.7820
     0.8222   0.8284   0.9762   1.0023   1.0140   1.0169   1.0255   1.3062
     1.4230   1.4568   1.4741   1.5414   1.7852   1.8144   1.8195   1.9991
     2.1536   2.1838   2.2535   2.2739   2.3013   2.3089   2.3253   2.3742
     2.5230   2.6472   2.6706   2.6746   2.9110   2.9792   2.9869   2.9997
     3.0160   3.0669   3.0892   3.1416   3.1987   3.2067   3.2654   3.4492
     3.4702   3.4982   3.5683   3.6012   3.7206   3.7498   3.7717   3.8180
     3.9104   3.9613   4.0226   4.0442   4.0761   4.1519   4.1811   4.2062
     4.2362   4.2515   4.2994   4.3341

          k =-0.0833 0.3368 0.2308 ( 96032 PWs)   bands (ev):

  -113.7098-113.7086-113.7069-113.7052 -71.1819 -71.1812 -71.1808 -71.1800
   -71.1791 -71.1786 -71.1771 -71.1766 -71.0114 -71.0102 -71.0080 -71.0069
   -24.3583 -22.0550 -19.1046 -18.2413 -18.1412 -18.1188 -18.1002 -17.8687
   -17.2947 -17.2924 -17.2893 -17.2707 -16.8649 -16.8537 -16.8458 -16.8388
   -16.8046 -16.6407 -16.6093 -16.5898 -16.5789 -16.5783 -16.5778 -16.5750
   -16.5741 -16.5679 -16.5650 -16.5630 -16.5441 -16.5058 -16.4765 -16.4406
   -16.0322 -15.7585 -15.7130 -15.6635 -15.4167 -15.3730 -15.3099 -15.2961
   -15.2099 -15.0412 -14.9973 -14.9547 -14.9527 -14.7284 -14.7062 -14.6759
   -14.6725 -14.6026 -14.4992 -13.1749 -12.4142 -12.0225 -11.9364 -11.8665
   -11.5003 -11.4026 -10.6766 -10.6409 -10.3449 -10.2519 -10.1707  -9.5144
    -9.2421  -9.0939  -8.9182  -8.8466  -8.7757  -8.4843  -8.4063  -8.2924
    -8.2477  -8.2142  -8.2084  -8.0668  -8.0104  -7.9403  -7.9117  -7.8692
    -7.8396  -7.7260  -7.6924  -7.6485  -7.6427  -7.4996  -7.3692  -7.0833
    -7.0139  -6.9867  -6.9769  -6.7198  -6.6720  -6.6334  -6.6162  -6.5903
    -6.4748  -6.2750  -6.0228  -5.9078  -5.8904  -5.8773  -5.7350  -5.7327
    -5.6638  -5.5957  -5.4950  -5.4273  -5.3998  -5.3958  -5.3558  -5.3378
    -5.2552  -5.2337  -5.2085  -5.1922  -5.1834  -5.0265  -5.0239  -4.9812
    -4.9669  -4.9425  -4.7800  -4.7682  -4.7414  -4.7400  -4.6708  -4.5528
    -4.5467  -4.5411  -4.4186  -4.3992  -4.2849  -4.2573  -4.2215  -4.2155
    -4.1577  -4.1229  -4.1138  -4.1025  -3.8269  -3.8066  -3.7996  -3.6872
    -3.6227  -3.5885  -3.5772  -3.5001  -3.4845  -3.4054  -3.3990  -3.3896
    -3.3789  -3.3704  -3.3388  -3.3177  -3.2863  -3.2553  -3.2266  -3.2029
    -3.1689  -2.9808  -2.9688  -2.9282  -2.9121  -2.8939  -2.8262  -2.7754
    -2.7605  -2.6683  -2.6233  -2.4498  -0.5051  -0.4263  -0.3562  -0.2755
     0.3249   0.3768   0.4134   0.5304   0.5698   0.6826   0.7671   0.8169
     0.8271   0.9188   0.9303   0.9601   0.9951   1.0496   1.0810   1.2845
     1.3183   1.4232   1.4566   1.5256   1.7578   1.8493   1.8866   1.9905
     2.0992   2.1720   2.2027   2.2232   2.2373   2.2657   2.2976   2.4664
     2.5799   2.6166   2.6223   2.6811   2.9169   2.9484   2.9794   2.9982
     3.0400   3.0945   3.1295   3.1621   3.1996   3.2433   3.2673   3.3663
     3.4756   3.4982   3.5462   3.6113   3.6432   3.6883   3.7362   3.7624
     3.8493   3.9674   4.0071   4.0793   4.1221   4.1697   4.2005   4.2458
     4.2886   4.3160   4.3564   4.3760

          k =-0.2500 0.2406-0.2308 ( 96032 PWs)   bands (ev):

  -113.7098-113.7086-113.7069-113.7052 -71.1819 -71.1812 -71.1808 -71.1800
   -71.1791 -71.1786 -71.1771 -71.1766 -71.0114 -71.0102 -71.0080 -71.0069
   -24.3583 -22.0550 -19.1046 -18.2413 -18.1410 -18.1191 -18.1000 -17.8687
   -17.2946 -17.2926 -17.2892 -17.2707 -16.8654 -16.8534 -16.8465 -16.8384
   -16.8043 -16.6411 -16.6084 -16.5904 -16.5788 -16.5777 -16.5774 -16.5755
   -16.5746 -16.5672 -16.5661 -16.5626 -16.5441 -16.5056 -16.4763 -16.4413
   -16.0322 -15.7557 -15.7175 -15.6615 -15.4214 -15.3641 -15.3143 -15.2970
   -15.2088 -15.0377 -15.0067 -14.9543 -14.9470 -14.7299 -14.7006 -14.6802
   -14.6720 -14.6033 -14.4993 -13.1749 -12.4142 -12.0226 -11.9363 -11.8665
   -11.5003 -11.4026 -10.6766 -10.6408 -10.3447 -10.2520 -10.1708  -9.5144
    -9.2422  -9.0936  -8.9168  -8.8457  -8.7785  -8.4843  -8.4063  -8.2822
    -8.2791  -8.2150  -8.1720  -8.0666  -8.0095  -7.9854  -7.8875  -7.8644
    -7.8399  -7.7239  -7.6925  -7.6512  -7.6420  -7.4996  -7.3693  -7.0841
    -7.0123  -6.9890  -6.9676  -6.7205  -6.6863  -6.6533  -6.5919  -6.5864
    -6.4747  -6.2751  -6.0237  -5.9124  -5.8813  -5.8783  -5.7516  -5.6981
    -5.6849  -5.5959  -5.4940  -5.4281  -5.4182  -5.3751  -5.3609  -5.3305
    -5.2508  -5.2406  -5.2011  -5.1980  -5.1936  -5.0296  -5.0071  -4.9754
    -4.9627  -4.9585  -4.7780  -4.7665  -4.7572  -4.7284  -4.6695  -4.5525
    -4.5441  -4.5375  -4.4192  -4.4058  -4.2850  -4.2766  -4.2106  -4.2066
    -4.1489  -4.1348  -4.1177  -4.0970  -3.8259  -3.8073  -3.8012  -3.6872
    -3.6151  -3.6129  -3.5614  -3.5000  -3.4679  -3.4236  -3.4010  -3.3866
    -3.3699  -3.3634  -3.3408  -3.3250  -3.3142  -3.2271  -3.2238  -3.2058
    -3.1715  -3.0123  -2.9488  -2.9326  -2.8941  -2.8895  -2.8185  -2.7902
    -2.7581  -2.6639  -2.6301  -2.4505  -0.5045  -0.4306  -0.3531  -0.2753
     0.3178   0.3781   0.4327   0.5153   0.5518   0.7170   0.7427   0.8022
     0.8570   0.9368   0.9441   0.9543   1.0112   1.0273   1.0431   1.3084
     1.3361   1.3763   1.4862   1.5128   1.7692   1.8321   1.8857   1.9943
     2.1023   2.1689   2.2004   2.2261   2.2343   2.2645   2.3071   2.4569
     2.5788   2.5979   2.6363   2.6996   2.9169   2.9464   2.9849   3.0075
     3.0163   3.0657   3.1250   3.1817   3.2052   3.2299   3.3112   3.3731
     3.4409   3.4895   3.5115   3.5930   3.6660   3.7262   3.7557   3.8286
     3.8954   3.9252   4.0123   4.0360   4.1139   4.1703   4.2072   4.2417
     4.2867   4.3079   4.3287   4.3672

          k = 0.3333 0.0962-0.2308 ( 96032 PWs)   bands (ev):

  -113.7098-113.7086-113.7069-113.7052 -71.1819 -71.1812 -71.1808 -71.1800
   -71.1791 -71.1786 -71.1771 -71.1766 -71.0114 -71.0102 -71.0080 -71.0069
   -24.3583 -22.0550 -19.1046 -18.2413 -18.1413 -18.1185 -18.1004 -17.8687
   -17.2949 -17.2925 -17.2888 -17.2708 -16.8644 -16.8539 -16.8467 -16.8381
   -16.8048 -16.6411 -16.6081 -16.5905 -16.5788 -16.5785 -16.5773 -16.5751
   -16.5743 -16.5679 -16.5650 -16.5631 -16.5440 -16.5062 -16.4758 -16.4412
   -16.0322 -15.7561 -15.7179 -15.6610 -15.4214 -15.3635 -15.3149 -15.2969
   -15.2087 -15.0383 -15.0058 -14.9546 -14.9472 -14.7288 -14.7030 -14.6794
   -14.6711 -14.6033 -14.4992 -13.1749 -12.4143 -12.0229 -11.9364 -11.8661
   -11.5003 -11.4026 -10.6780 -10.6395 -10.3444 -10.2517 -10.1713  -9.5145
    -9.2422  -9.0939  -8.9189  -8.8433  -8.7788  -8.4843  -8.4064  -8.2820
    -8.2792  -8.2146  -8.1722  -8.0635  -8.0100  -7.9848  -7.8872  -7.8678
    -7.8392  -7.7248  -7.6914  -7.6513  -7.6457  -7.4988  -7.3669  -7.0838
    -7.0169  -6.9814  -6.9693  -6.7205  -6.6874  -6.6529  -6.5920  -6.5870
    -6.4745  -6.2753  -6.0219  -5.9158  -5.8797  -5.8780  -5.7515  -5.6979
    -5.6850  -5.5963  -5.4906  -5.4303  -5.4147  -5.3758  -5.3694  -5.3306
    -5.2542  -5.2350  -5.1995  -5.1985  -5.1922  -5.0303  -5.0059  -4.9745
    -4.9637  -4.9608  -4.7839  -4.7654  -4.7518  -4.7276  -4.6694  -4.5559
    -4.5443  -4.5376  -4.4208  -4.3977  -4.2856  -4.2796  -4.2134  -4.2089
    -4.1485  -4.1311  -4.1177  -4.0964  -3.8252  -3.8083  -3.8005  -3.6855
    -3.6148  -3.6131  -3.5598  -3.5002  -3.4669  -3.4284  -3.3963  -3.3900
    -3.3725  -3.3611  -3.3431  -3.3189  -3.3120  -3.2303  -3.2244  -3.2068
    -3.1715  -3.0116  -2.9511  -2.9332  -2.8949  -2.8887  -2.8183  -2.7860
    -2.7614  -2.6655  -2.6302  -2.4487  -0.5042  -0.4314  -0.3518  -0.2759
     0.3172   0.3779   0.4343   0.5157   0.5536   0.7174   0.7440   0.8007
     0.8544   0.9379   0.9439   0.9527   1.0114   1.0276   1.0434   1.3099
     1.3348   1.3766   1.4847   1.5125   1.7692   1.8273   1.8894   2.0000
     2.1044   2.1648   2.2106   2.2218   2.2347   2.2656   2.3049   2.4620
     2.5732   2.5928   2.6334   2.6995   2.9230   2.9478   2.9845   3.0042
     3.0290   3.0768   3.1327   3.1824   3.2022   3.2347   3.3082   3.3543
     3.4464   3.4845   3.5221   3.5834   3.6737   3.7345   3.7557   3.7886
     3.8734   3.9165   4.0270   4.0569   4.1170   4.1396   4.1800   4.2604
     4.2775   4.3016   4.3254   4.3518

          k =-0.2500-0.2406 0.2308 ( 96032 PWs)   bands (ev):

  -113.7098-113.7086-113.7069-113.7052 -71.1819 -71.1812 -71.1808 -71.1800
   -71.1791 -71.1786 -71.1771 -71.1766 -71.0114 -71.0102 -71.0080 -71.0069
   -24.3583 -22.0550 -19.1046 -18.2413 -18.1415 -18.1183 -18.1005 -17.8687
   -17.2952 -17.2920 -17.2891 -17.2708 -16.8641 -16.8542 -16.8458 -16.8388
   -16.8050 -16.6402 -16.6094 -16.5901 -16.5788 -16.5783 -16.5774 -16.5751
   -16.5742 -16.5680 -16.5650 -16.5632 -16.5440 -16.5059 -16.4769 -16.4402
   -16.0322 -15.7591 -15.7127 -15.6634 -15.4162 -15.3735 -15.3098 -15.2962
   -15.2096 -15.0413 -14.9983 -14.9550 -14.9515 -14.7284 -14.7052 -14.6770
   -14.6720 -14.6027 -14.4992 -13.1749 -12.4143 -12.0229 -11.9361 -11.8663
   -11.5003 -11.4026 -10.6779 -10.6397 -10.3443 -10.2522 -10.1709  -9.5145
    -9.2421  -9.0940  -8.9178  -8.8489  -8.7737  -8.4843  -8.4064  -8.2925
    -8.2476  -8.2137  -8.2081  -8.0645  -8.0103  -7.9417  -7.9119  -7.8701
    -7.8396  -7.7259  -7.6927  -7.6488  -7.6458  -7.4989  -7.3668  -7.0840
    -7.0150  -6.9871  -6.9729  -6.7195  -6.6728  -6.6323  -6.6178  -6.5907
    -6.4746  -6.2752  -6.0218  -5.9062  -5.8903  -5.8800  -5.7369  -5.7307
    -5.6636  -5.5962  -5.4901  -5.4295  -5.4028  -5.3920  -5.3629  -5.3376
    -5.2548  -5.2286  -5.2111  -5.1912  -5.1857  -5.0277  -5.0197  -4.9815
    -4.9681  -4.9442  -4.7873  -4.7612  -4.7420  -4.7375  -4.6711  -4.5550
    -4.5460  -4.5424  -4.4197  -4.3925  -4.2836  -4.2599  -4.2238  -4.2201
    -4.1555  -4.1205  -4.1138  -4.1035  -3.8256  -3.8064  -3.8009  -3.6855
    -3.6220  -3.5880  -3.5772  -3.5005  -3.4841  -3.4057  -3.3978  -3.3938
    -3.3793  -3.3682  -3.3388  -3.3140  -3.2848  -3.2565  -3.2292  -3.2031
    -3.1690  -2.9805  -2.9685  -2.9296  -2.9119  -2.8936  -2.8259  -2.7790
    -2.7583  -2.6699  -2.6238  -2.4477  -0.5047  -0.4269  -0.3578  -0.2739
     0.3249   0.3770   0.4129   0.5326   0.5709   0.6846   0.7668   0.8159
     0.8262   0.9194   0.9307   0.9597   0.9945   1.0496   1.0779   1.2842
     1.3187   1.4248   1.4556   1.5244   1.7582   1.8491   1.8840   1.9980
     2.1038   2.1653   2.2146   2.2225   2.2331   2.2681   2.2953   2.4695
     2.5742   2.6147   2.6156   2.6807   2.9245   2.9486   2.9795   2.9974
     3.0522   3.0959   3.1322   3.1587   3.2050   3.2323   3.2642   3.4072
     3.4571   3.4894   3.5358   3.6130   3.6442   3.6892   3.7262   3.7905
     3.8762   3.9437   4.0016   4.0397   4.0942   4.1371   4.1955   4.2285
     4.2791   4.3239   4.3528   4.3727

          k = 0.3333-0.0962 0.2308 ( 96032 PWs)   bands (ev):

  -113.7098-113.7086-113.7069-113.7052 -71.1819 -71.1812 -71.1808 -71.1800
   -71.1791 -71.1786 -71.1771 -71.1766 -71.0114 -71.0102 -71.0080 -71.0069
   -24.3583 -22.0550 -19.1046 -18.2413 -18.1411 -18.1190 -18.1001 -17.8687
   -17.2943 -17.2931 -17.2888 -17.2708 -16.8649 -16.8541 -16.8454 -16.8391
   -16.8045 -16.6402 -16.6091 -16.5902 -16.5789 -16.5778 -16.5771 -16.5756
   -16.5746 -16.5674 -16.5659 -16.5625 -16.5440 -16.5055 -16.4770 -16.4407
   -16.0322 -15.7587 -15.7124 -15.6639 -15.4167 -15.3734 -15.3092 -15.2965
   -15.2093 -15.0421 -14.9978 -14.9543 -14.9521 -14.7279 -14.7044 -14.6782
   -14.6701 -14.6047 -14.4992 -13.1749 -12.4143 -12.0226 -11.9366 -11.8661
   -11.5003 -11.4026 -10.6773 -10.6401 -10.3446 -10.2518 -10.1711  -9.5144
    -9.2422  -9.0936  -8.9158  -8.8487  -8.7762  -8.4843  -8.4063  -8.2924
    -8.2480  -8.2138  -8.2085  -8.0667  -8.0112  -7.9383  -7.9121  -7.8708
    -7.8397  -7.7265  -7.6921  -7.6489  -7.6432  -7.4992  -7.3679  -7.0835
    -7.0148  -6.9849  -6.9763  -6.7200  -6.6715  -6.6330  -6.6175  -6.5908
    -6.4746  -6.2752  -6.0231  -5.9072  -5.8882  -5.8797  -5.7351  -5.7321
    -5.6634  -5.5966  -5.4927  -5.4286  -5.4024  -5.3895  -5.3623  -5.3370
    -5.2491  -5.2336  -5.2127  -5.1947  -5.1840  -5.0271  -5.0218  -4.9821
    -4.9668  -4.9421  -4.7809  -4.7668  -4.7429  -4.7365  -4.6688  -4.5555
    -4.5468  -4.5411  -4.4190  -4.3968  -4.2863  -4.2573  -4.2230  -4.2148
    -4.1591  -4.1222  -4.1152  -4.1032  -3.8258  -3.8070  -3.7990  -3.6881
    -3.6227  -3.5891  -3.5765  -3.5008  -3.4853  -3.4023  -3.3965  -3.3916
    -3.3870  -3.3679  -3.3366  -3.3151  -3.2860  -3.2551  -3.2262  -3.2032
    -3.1685  -2.9802  -2.9690  -2.9295  -2.9100  -2.8937  -2.8253  -2.7769
    -2.7595  -2.6693  -2.6243  -2.4501  -0.5043  -0.4281  -0.3572  -0.2741
     0.3240   0.3771   0.4134   0.5332   0.5713   0.6828   0.7674   0.8165
     0.8266   0.9161   0.9304   0.9596   0.9940   1.0499   1.0792   1.2860
     1.3178   1.4253   1.4575   1.5266   1.7598   1.8488   1.8775   1.9983
     2.1054   2.1697   2.2031   2.2175   2.2388   2.2633   2.2990   2.4659
     2.5786   2.6140   2.6216   2.6792   2.9215   2.9488   2.9878   2.9931
     3.0334   3.1013   3.1246   3.1494   3.2109   3.2448   3.2560   3.3864
     3.4643   3.4840   3.5507   3.6118   3.6412   3.6745   3.7372   3.8312
     3.9053   3.9261   4.0052   4.0773   4.1108   4.1667   4.1993   4.2249
     4.2983   4.3146   4.3473   4.3792

          k =-0.0833 0.5292 0.2308 ( 96076 PWs)   bands (ev):

  -113.7098-113.7086-113.7069-113.7052 -71.1819 -71.1812 -71.1808 -71.1800
   -71.1791 -71.1786 -71.1771 -71.1766 -71.0114 -71.0102 -71.0080 -71.0069
   -24.3583 -22.0550 -19.1046 -18.2033 -18.1816 -18.1214 -18.0986 -17.8687
   -17.2899 -17.2876 -17.2846 -17.2822 -16.8679 -16.8603 -16.8562 -16.8513
   -16.7351 -16.6986 -16.6051 -16.5851 -16.5784 -16.5778 -16.5762 -16.5748
   -16.5729 -16.5706 -16.5663 -16.5637 -16.5371 -16.5302 -16.4759 -16.4294
   -16.0322 -15.7305 -15.6763 -15.5184 -15.4675 -15.4385 -15.4061 -15.2730
   -15.2538 -15.0274 -14.9807 -14.9542 -14.8402 -14.7781 -14.7448 -14.7130
   -14.6482 -14.6324 -14.4992 -13.1749 -12.2529 -12.1692 -11.9368 -11.8491
   -11.5003 -11.4026 -10.6498 -10.5447 -10.4755 -10.2432 -10.1413  -9.5144
    -9.2419  -9.0250  -8.9862  -8.8120  -8.7101  -8.4844  -8.4064  -8.3144
    -8.3122  -8.2889  -8.2533  -8.0670  -7.9299  -7.9254  -7.8922  -7.8740
    -7.8552  -7.8395  -7.7913  -7.7078  -7.7032  -7.4995  -7.2110  -7.1258
    -7.1115  -7.0110  -6.9853  -6.7192  -6.6191  -6.6007  -6.4840  -6.4750
    -6.4684  -6.2749  -6.0210  -5.8735  -5.8391  -5.7485  -5.7297  -5.7227
    -5.6544  -5.5939  -5.5525  -5.4853  -5.3872  -5.3764  -5.3284  -5.3095
    -5.2658  -5.2315  -5.2126  -5.1995  -5.1936  -5.0739  -5.0700  -4.9553
    -4.9476  -4.9122  -4.8497  -4.8135  -4.8117  -4.7717  -4.6714  -4.5356
    -4.5232  -4.4923  -4.4472  -4.4116  -4.2490  -4.2144  -4.2037  -4.1949
    -4.1109  -4.0986  -4.0603  -4.0511  -3.8769  -3.8716  -3.8405  -3.8103
    -3.5503  -3.5327  -3.5216  -3.5188  -3.4664  -3.4191  -3.4071  -3.4008
    -3.3900  -3.3780  -3.3592  -3.3489  -3.2671  -3.2117  -3.2016  -3.1830
    -3.1312  -3.0479  -3.0293  -2.9820  -2.9675  -2.8943  -2.8673  -2.7758
    -2.7665  -2.7506  -2.6437  -2.4484  -0.4534  -0.3837  -0.3350  -0.2875
     0.2381   0.3504   0.4722   0.5065   0.5111   0.6761   0.8050   0.8728
     0.9317   0.9448   0.9499   0.9711   0.9963   1.0753   1.1922   1.2620
     1.2727   1.3499   1.4403   1.5040   1.7327   1.8827   1.9763   2.0026
     2.0409   2.1682   2.1877   2.2034   2.2296   2.2552   2.2676   2.5116
     2.5232   2.5569   2.5764   2.6489   2.9005   2.9911   3.0075   3.0253
     3.0943   3.1260   3.1701   3.2205   3.2366   3.2748   3.2832   3.3141
     3.3559   3.4495   3.4866   3.5042   3.6069   3.6839   3.7935   3.8420
     3.8644   3.9149   3.9302   3.9460   4.0987   4.1938   4.2249   4.2418
     4.2909   4.3695   4.4403   4.4617

          k =-0.4167 0.3368-0.2308 ( 96076 PWs)   bands (ev):

  -113.7098-113.7086-113.7069-113.7052 -71.1819 -71.1812 -71.1808 -71.1800
   -71.1791 -71.1786 -71.1771 -71.1766 -71.0114 -71.0102 -71.0080 -71.0069
   -24.3583 -22.0550 -19.1046 -18.2036 -18.1813 -18.1218 -18.0984 -17.8687
   -17.2893 -17.2881 -17.2847 -17.2822 -16.8679 -16.8595 -16.8582 -16.8506
[...]
   -16.0322 -15.7562 -15.6617 -15.6327 -15.4580 -15.3562 -15.3450 -15.3152
   -15.2283 -15.0431 -14.9572 -14.9541 -14.9341 -14.7448 -14.7115 -14.6938
   -14.6733 -14.6132 -14.4992 -13.1749 -12.3546 -12.0414 -11.9889 -11.8378
   -11.5003 -11.4026 -10.6541 -10.6192 -10.3592 -10.3044 -10.1316  -9.5144
    -9.2421  -9.0687  -8.9174  -8.8761  -8.7202  -8.4843  -8.4063  -8.3189
    -8.2938  -8.2503  -8.1745  -8.0678  -8.0070  -7.9723  -7.8916  -7.8605
    -7.8398  -7.7889  -7.7131  -7.6907  -7.6818  -7.4995  -7.3083  -7.1420
    -7.0159  -6.9899  -6.9762  -6.7195  -6.6380  -6.5868  -6.5783  -6.5300
    -6.4750  -6.2750  -6.0221  -5.8762  -5.8461  -5.8381  -5.7533  -5.7173
    -5.6538  -5.6041  -5.4991  -5.4649  -5.4054  -5.3765  -5.3416  -5.3302
    -5.2575  -5.2231  -5.2150  -5.1923  -5.1814  -5.0479  -5.0348  -4.9831
    -4.9639  -4.9514  -4.8092  -4.7841  -4.7746  -4.7684  -4.6706  -4.5435
    -4.5271  -4.5240  -4.4192  -4.4047  -4.2719  -4.2642  -4.2029  -4.1748
    -4.1435  -4.0996  -4.0975  -4.0884  -3.8426  -3.8082  -3.8065  -3.7677
    -3.6058  -3.5737  -3.5320  -3.5029  -3.4998  -3.4274  -3.4191  -3.3897
    -3.3839  -3.3770  -3.3357  -3.2922  -3.2590  -3.2558  -3.2537  -3.1969
    -3.1373  -3.0101  -2.9576  -2.9476  -2.9241  -2.9133  -2.8938  -2.8249
    -2.7620  -2.6627  -2.6191  -2.4497  -0.4623  -0.4316  -0.3276  -0.2885
     0.2469   0.4154   0.4357   0.4970   0.5048   0.7476   0.7707   0.8595
     0.8914   0.9300   0.9380   0.9754   0.9895   1.0529   1.0813   1.2056
     1.3260   1.4374   1.4524   1.5127   1.7210   1.9143   1.9294   1.9901
     2.0930   2.1676   2.1888   2.1973   2.2175   2.2652   2.2888   2.4953
     2.5753   2.6024   2.6155   2.6325   2.9199   2.9691   2.9829   3.0105
     3.0505   3.1150   3.1574   3.1813   3.2295   3.2497   3.2735   3.3129
     3.4499   3.4893   3.5088   3.5576   3.6417   3.6986   3.7370   3.7881
     3.8192   3.9407   3.9988   4.0714   4.1090   4.1704   4.2159   4.2476
     4.2924   4.3263   4.3755   4.4116

          k =-0.2500-0.1443 0.2308 ( 96098 PWs)   bands (ev):

  -113.7098-113.7086-113.7069-113.7052 -71.1819 -71.1812 -71.1808 -71.1800
   -71.1791 -71.1786 -71.1771 -71.1766 -71.0114 -71.0102 -71.0080 -71.0069
   -24.3583 -22.0550 -19.1046 -18.2507 -18.1338 -18.1081 -18.1073 -17.8687
   -17.2964 -17.2932 -17.2916 -17.2670 -16.8654 -16.8462 -16.8423 -16.8335
   -16.8232 -16.6334 -16.6005 -16.5991 -16.5790 -16.5786 -16.5776 -16.5754
   -16.5745 -16.5672 -16.5637 -16.5634 -16.5452 -16.4993 -16.4607 -16.4582
   -16.0322 -15.7547 -15.7503 -15.6929 -15.3841 -15.3757 -15.3134 -15.2608
   -15.1972 -15.0346 -15.0283 -14.9732 -14.9542 -14.7142 -14.7113 -14.6814
   -14.6445 -14.5957 -14.4992 -13.1749 -12.4574 -11.9981 -11.9010 -11.8979
   -11.5003 -11.4026 -10.7046 -10.6434 -10.3225 -10.2155 -10.2128  -9.5145
    -9.2423  -9.1108  -8.9116  -8.8293  -8.8230  -8.4842  -8.4063  -8.2653
    -8.2311  -8.1966  -8.1853  -8.0641  -8.0367  -7.9343  -7.8921  -7.8751
    -7.8396  -7.6765  -7.6712  -7.6240  -7.6150  -7.4985  -7.4080  -7.0306
    -7.0179  -6.9996  -6.9612  -6.7235  -6.7070  -6.6721  -6.6479  -6.6461
    -6.4745  -6.2752  -6.0227  -5.9290  -5.9174  -5.9123  -5.7398  -5.7135
    -5.6823  -5.6013  -5.4912  -5.4111  -5.4024  -5.3904  -5.3763  -5.3346
    -5.2595  -5.2410  -5.1975  -5.1892  -5.1871  -5.0111  -4.9942  -4.9882
    -4.9572  -4.9540  -4.7773  -4.7404  -4.7278  -4.7101  -4.6690  -4.5628
    -4.5544  -4.5467  -4.4192  -4.3870  -4.2922  -4.2656  -4.2427  -4.2372
    -4.1617  -4.1466  -4.1355  -4.1147  -3.8171  -3.8120  -3.8002  -3.6383
    -3.6290  -3.6163  -3.5994  -3.4999  -3.4615  -3.4114  -3.3985  -3.3800
    -3.3660  -3.3538  -3.3408  -3.3285  -3.2976  -3.2378  -3.2182  -3.2071
    -3.1994  -2.9780  -2.9498  -2.9247  -2.8938  -2.8833  -2.7631  -2.7437
    -2.7259  -2.7191  -2.5947  -2.4490  -0.5715  -0.3893  -0.3811  -0.2774
     0.3365   0.3913   0.4074   0.5372   0.6125   0.6355   0.7550   0.7741
     0.7989   0.9017   0.9453   0.9548   1.0113   1.0339   1.0550   1.3157
     1.3575   1.3980   1.4756   1.5297   1.7871   1.8031   1.8635   1.9992
     2.1181   2.1672   2.2280   2.2493   2.2596   2.2714   2.2957   2.4390
     2.5557   2.6226   2.6521   2.7051   2.9180   2.9300   2.9757   3.0137
     3.0357   3.0566   3.1272   3.1626   3.1958   3.2240   3.2768   3.4063
     3.4664   3.5109   3.5516   3.6066   3.6574   3.6974   3.7640   3.8131
     3.8684   3.9404   4.0202   4.0533   4.1045   4.1481   4.1832   4.2309
     4.2582   4.3184   4.3305   4.3503

          k = 0.0000-0.2887-0.2308 ( 96098 PWs)   bands (ev):

  -113.7098-113.7086-113.7069-113.7052 -71.1819 -71.1812 -71.1808 -71.1800
   -71.1791 -71.1786 -71.1771 -71.1766 -71.0114 -71.0102 -71.0080 -71.0069
   -24.3583 -22.0550 -19.1046 -18.2507 -18.1337 -18.1093 -18.1061 -17.8687
   -17.2962 -17.2929 -17.2922 -17.2669 -16.8658 -16.8455 -16.8429 -16.8333
   -16.8231 -16.6339 -16.6003 -16.5990 -16.5791 -16.5785 -16.5780 -16.5753
   -16.5743 -16.5671 -16.5641 -16.5631 -16.5453 -16.4992 -16.4608 -16.4581
   -16.0322 -15.7539 -15.7508 -15.6930 -15.3831 -15.3767 -15.3136 -15.2604
   -15.1977 -15.0342 -15.0275 -14.9740 -14.9542 -14.7157 -14.7109 -14.6805
   -14.6458 -14.5945 -14.4992 -13.1749 -12.4573 -11.9976 -11.9012 -11.8983
   -11.5003 -11.4026 -10.7041 -10.6439 -10.3232 -10.2160 -10.2117  -9.5145
    -9.2422  -9.1108  -8.9120  -8.8278  -8.8241  -8.4843  -8.4062  -8.2652
    -8.2314  -8.1960  -8.1858  -8.0668  -8.0358  -7.9343  -7.8912  -7.8743
    -7.8395  -7.6747  -7.6727  -7.6240  -7.6121  -7.4995  -7.4101  -7.0319
    -7.0167  -6.9978  -6.9652  -6.7222  -6.7075  -6.6731  -6.6463  -6.6458
    -6.4747  -6.2751  -6.0234  -5.9295  -5.9194  -5.9093  -5.7386  -5.7147
    -5.6828  -5.6007  -5.4946  -5.4116  -5.4000  -5.3931  -5.3693  -5.3351
    -5.2558  -5.2488  -5.1962  -5.1898  -5.1848  -5.0097  -4.9944  -4.9911
    -4.9557  -4.9538  -4.7741  -4.7443  -4.7279  -4.7104  -4.6701  -4.5623
    -4.5545  -4.5449  -4.4185  -4.3926  -4.2936  -4.2606  -4.2427  -4.2321
    -4.1620  -4.1501  -4.1357  -4.1142  -3.8172  -3.8135  -3.7992  -3.6387
    -3.6291  -3.6160  -3.5998  -3.4994  -3.4610  -3.4092  -3.3943  -3.3859
    -3.3618  -3.3544  -3.3416  -3.3315  -3.3015  -3.2370  -3.2176  -3.2084
    -3.1974  -2.9779  -2.9501  -2.9236  -2.8940  -2.8845  -2.7646  -2.7434
    -2.7253  -2.7169  -2.5939  -2.4499  -0.5718  -0.3866  -0.3817  -0.2789
     0.3363   0.3922   0.4071   0.5347   0.6108   0.6342   0.7565   0.7740
     0.8005   0.9019   0.9439   0.9557   1.0115   1.0349   1.0574   1.3147
     1.3584   1.3949   1.4762   1.5302   1.7866   1.8032   1.8670   1.9935
     2.1130   2.1751   2.2138   2.2514   2.2616   2.2730   2.2999   2.4365
     2.5593   2.6252   2.6570   2.7054   2.9141   2.9287   2.9784   3.0128
     3.0398   3.0482   3.1202   3.1553   3.1929   3.2270   3.2758   3.4269
     3.4598   3.5106   3.5476   3.6082   3.6539   3.7129   3.7541   3.7988
     3.8759   3.9081   4.0353   4.0696   4.1078   4.1702   4.1985   4.2435
     4.2639   4.3044   4.3379   4.3578

          k =-0.4167 0.7217 0.2308 ( 96084 PWs)   bands (ev):

  -113.7098-113.7086-113.7069-113.7052 -71.1819 -71.1812 -71.1808 -71.1800
   -71.1791 -71.1786 -71.1771 -71.1766 -71.0114 -71.0102 -71.0080 -71.0069
   -24.3583 -22.0550 -19.1046 -18.1888 -18.1882 -18.1368 -18.0919 -17.8687
   -17.2902 -17.2866 -17.2850 -17.2817 -16.8727 -16.8592 -16.8565 -16.8542
   -16.7084 -16.7066 -16.6228 -16.5806 -16.5781 -16.5778 -16.5757 -16.5753
   -16.5723 -16.5706 -16.5678 -16.5633 -16.5330 -16.5323 -16.4975 -16.4107
   -16.0322 -15.7401 -15.6340 -15.4975 -15.4894 -15.4842 -15.3726 -15.2782
   -15.2718 -15.0369 -14.9543 -14.9472 -14.8215 -14.8169 -14.7579 -14.6941
   -14.6486 -14.6408 -14.4993 -13.1749 -12.1948 -12.1929 -11.9949 -11.8201
   -11.5003 -11.4026 -10.6503 -10.4960 -10.4922 -10.3054 -10.1051  -9.5145
    -9.2420  -8.9949  -8.9937  -8.8607  -8.6618  -8.4844  -8.4066  -8.3399
    -8.3179  -8.3086  -8.1993  -8.0641  -8.0020  -7.8993  -7.8901  -7.8857
    -7.8449  -7.8307  -7.7938  -7.7340  -7.7299  -7.4991  -7.1725  -7.1465
    -7.1378  -7.0059  -6.9749  -6.7189  -6.6077  -6.5732  -6.4843  -6.4710
    -6.4590  -6.2754  -6.0204  -5.8534  -5.7985  -5.7563  -5.7031  -5.7007
    -5.6980  -5.5992  -5.5815  -5.4835  -5.3995  -5.3585  -5.3325  -5.3038
    -5.2587  -5.2471  -5.2064  -5.1882  -5.1768  -5.0761  -5.0586  -4.9910
    -4.9323  -4.9027  -4.8905  -4.8410  -4.8253  -4.7694  -4.6707  -4.5406
    -4.5050  -4.4653  -4.4445  -4.4098  -4.2655  -4.2266  -4.1987  -4.1619
    -4.1056  -4.0856  -4.0626  -4.0507  -3.8865  -3.8781  -3.8570  -3.8109
    -3.5488  -3.5423  -3.5410  -3.5090  -3.4572  -3.4365  -3.4162  -3.3951
    -3.3827  -3.3791  -3.3628  -3.3427  -3.2451  -3.2031  -3.1898  -3.1721
    -3.1443  -3.0862  -3.0555  -2.9857  -2.9567  -2.8944  -2.8291  -2.8232
    -2.7850  -2.7578  -2.5944  -2.4467  -0.4802  -0.3511  -0.3158  -0.3070
     0.1802   0.3990   0.4440   0.4734   0.4881   0.7677   0.7843   0.8942
     0.9143   0.9432   0.9573   0.9912   1.0280   1.0557   1.1267   1.2079
     1.2871   1.4018   1.4478   1.5078   1.6775   1.9570   2.0024   2.0508
     2.0638   2.1690   2.1786   2.1929   2.2215   2.2414   2.2756   2.5064
     2.5107   2.5335   2.5889   2.6458   2.9470   2.9831   3.0052   3.0339
     3.0936   3.1209   3.1651   3.2073   3.2468   3.2953   3.3128   3.3305
     3.3715   3.4057   3.4354   3.5030   3.6139   3.7534   3.8037   3.8181
     3.8381   3.8560   3.9343   4.0115   4.0857   4.1497   4.1797   4.2257
     4.2835   4.3645   4.4135   4.4621

          k = 0.8333 0.0000-0.2308 ( 96084 PWs)   bands (ev):

  -113.7098-113.7086-113.7069-113.7052 -71.1819 -71.1812 -71.1808 -71.1800
   -71.1791 -71.1786 -71.1771 -71.1766 -71.0114 -71.0102 -71.0080 -71.0069
   -24.3583 -22.0550 -19.1046 -18.1901 -18.1869 -18.1369 -18.0918 -17.8687
   -17.2904 -17.2862 -17.2850 -17.2819 -16.8726 -16.8592 -16.8564 -16.8545
   -16.7088 -16.7063 -16.6228 -16.5805 -16.5783 -16.5776 -16.5760 -16.5749
   -16.5726 -16.5708 -16.5676 -16.5631 -16.5335 -16.5317 -16.4976 -16.4106
   -16.0322 -15.7400 -15.6339 -15.4976 -15.4881 -15.4852 -15.3725 -15.2776
   -15.2730 -15.0365 -14.9544 -14.9462 -14.8233 -14.8163 -14.7584 -14.6950
   -14.6477 -14.6400 -14.4992 -13.1749 -12.1952 -12.1920 -11.9953 -11.8203
   -11.5003 -11.4026 -10.6496 -10.4968 -10.4928 -10.3050 -10.1049  -9.5144
    -9.2419  -8.9951  -8.9937  -8.8605  -8.6615  -8.4844  -8.4065  -8.3402
    -8.3173  -8.3094  -8.1997  -8.0679  -7.9984  -7.8993  -7.8893  -7.8850
    -7.8413  -7.8366  -7.7934  -7.7326  -7.7281  -7.4994  -7.1728  -7.1451
    -7.1414  -7.0088  -6.9726  -6.7191  -6.6076  -6.5741  -6.4784  -6.4747
    -6.4595  -6.2749  -6.0208  -5.8543  -5.7982  -5.7573  -5.7030  -5.6997
    -5.6970  -5.6005  -5.5821  -5.4856  -5.3970  -5.3564  -5.3302  -5.3023
    -5.2703  -5.2395  -5.2038  -5.1876  -5.1768  -5.0794  -5.0594  -4.9898
    -4.9313  -4.9028  -4.8903  -4.8416  -4.8251  -4.7707  -4.6710  -4.5391
    -4.5020  -4.4660  -4.4490  -4.4114  -4.2612  -4.2279  -4.1984  -4.1590
    -4.1059  -4.0879  -4.0646  -4.0470  -3.8884  -3.8762  -3.8581  -3.8122
    -3.5503  -3.5432  -3.5393  -3.5093  -3.4586  -3.4351  -3.4171  -3.3864
    -3.3834  -3.3799  -3.3687  -3.3428  -3.2443  -3.2028  -3.1906  -3.1720
    -3.1460  -3.0859  -3.0562  -2.9855  -2.9566  -2.8941  -2.8284  -2.8225
    -2.7862  -2.7569  -2.5923  -2.4483  -0.4795  -0.3497  -0.3163  -0.3080
     0.1805   0.3991   0.4426   0.4737   0.4857   0.7676   0.7829   0.8975
     0.9151   0.9435   0.9570   0.9903   1.0274   1.0554   1.1267   1.2070
     1.2911   1.4006   1.4465   1.5085   1.6782   1.9659   1.9882   2.0459
     2.0628   2.1655   2.1824   2.2001   2.2185   2.2436   2.2692   2.5110
     2.5191   2.5319   2.5850   2.6573   2.9121   2.9845   3.0104   3.0368
     3.0923   3.1236   3.1766   3.2061   3.2622   3.2937   3.3028   3.3389
     3.3648   3.3949   3.4430   3.4930   3.6004   3.7540   3.7956   3.8214
     3.8258   3.8618   3.9215   4.0052   4.0811   4.1753   4.2102   4.2686
     4.2898   4.3765   4.4332   4.4549

          k =-0.4167-0.2406 0.2308 ( 96042 PWs)   bands (ev):

  -113.7098-113.7086-113.7069-113.7052 -71.1819 -71.1812 -71.1808 -71.1800
   -71.1791 -71.1786 -71.1771 -71.1766 -71.0114 -71.0102 -71.0080 -71.0069
   -24.3583 -22.0550 -19.1046 -18.2151 -18.1723 -18.1089 -18.1080 -17.8687
   -17.2909 -17.2881 -17.2864 -17.2796 -16.8639 -16.8599 -16.8578 -16.8470
   -16.7568 -16.6848 -16.5941 -16.5931 -16.5783 -16.5779 -16.5765 -16.5748
   -16.5731 -16.5700 -16.5656 -16.5644 -16.5397 -16.5264 -16.4539 -16.4518
   -16.0322 -15.7162 -15.7121 -15.5546 -15.4342 -15.4274 -15.3972 -15.2805
   -15.2370 -15.0144 -15.0089 -14.9543 -14.8636 -14.7466 -14.7291 -14.7241
   -14.6563 -14.6238 -14.4993 -13.1749 -12.3019 -12.1347 -11.8902 -11.8873
   -11.5003 -11.4026 -10.6522 -10.5814 -10.4457 -10.1925 -10.1889  -9.5145
    -9.2421  -9.0473  -8.9718  -8.7716  -8.7658  -8.4843  -8.4066  -8.3075
    -8.2905  -8.2706  -8.2654  -8.0642  -7.9508  -7.9255  -7.8946  -7.8812
    -7.8400  -7.8066  -7.7899  -7.6934  -7.6867  -7.4990  -7.2604  -7.0937
    -7.0461  -7.0406  -6.9989  -6.7190  -6.6365  -6.6141  -6.4972  -6.4928
    -6.4716  -6.2754  -6.0206  -5.8766  -5.8651  -5.7618  -5.7486  -5.7288
    -5.6251  -5.6186  -5.5111  -5.4832  -5.4002  -5.3771  -5.3315  -5.3237
    -5.2542  -5.2241  -5.2148  -5.2101  -5.2051  -5.0758  -5.0404  -4.9691
    -4.9418  -4.9243  -4.8219  -4.8089  -4.7865  -4.7664  -4.6712  -4.5413
    -4.5318  -4.5070  -4.4398  -4.4107  -4.2426  -4.2390  -4.2253  -4.1863
    -4.1162  -4.1049  -4.0746  -4.0593  -3.8645  -3.8308  -3.8210  -3.8178
    -3.5610  -3.5477  -3.5202  -3.5092  -3.4710  -3.4301  -3.4050  -3.3972
    -3.3822  -3.3717  -3.3469  -3.3248  -3.3099  -3.2302  -3.2083  -3.1710
    -3.1381  -3.0447  -3.0055  -2.9621  -2.9553  -2.8958  -2.8838  -2.7636
    -2.7345  -2.7137  -2.7050  -2.4466  -0.4225  -0.4134  -0.3698  -0.2695
     0.3029   0.3102   0.4579   0.5198   0.5857   0.6099   0.8168   0.8453
     0.9110   0.9297   0.9481   0.9754   1.0165   1.0539   1.1986   1.2688
     1.2981   1.3233   1.4650   1.4839   1.7916   1.8088   1.9473   2.0012
     2.0549   2.1693   2.1912   2.2018   2.2177   2.2650   2.2908   2.5093
     2.5221   2.5363   2.6137   2.6410   2.9331   2.9830   3.0095   3.0262
     3.0601   3.0949   3.1531   3.2153   3.2268   3.2614   3.2948   3.3540
     3.3787   3.4517   3.4577   3.5602   3.6186   3.7037   3.8060   3.8298
     3.8566   3.9198   3.9782   4.0051   4.0144   4.1501   4.2243   4.2592
     4.2790   4.3061   4.3861   4.4085

          k = 0.0000-0.4811-0.2308 ( 96042 PWs)   bands (ev):

  -113.7098-113.7086-113.7069-113.7052 -71.1819 -71.1812 -71.1808 -71.1800
   -71.1791 -71.1786 -71.1771 -71.1766 -71.0114 -71.0102 -71.0080 -71.0069
   -24.3583 -22.0550 -19.1046 -18.2152 -18.1722 -18.1101 -18.1069 -17.8687
   -17.2908 -17.2878 -17.2870 -17.2793 -16.8631 -16.8608 -16.8577 -16.8471
   -16.7567 -16.6850 -16.5939 -16.5931 -16.5785 -16.5778 -16.5767 -16.5745
   -16.5733 -16.5702 -16.5655 -16.5640 -16.5398 -16.5263 -16.4542 -16.4513
   -16.0322 -15.7156 -15.7124 -15.5545 -15.4333 -15.4284 -15.3970 -15.2807
   -15.2376 -15.0138 -15.0082 -14.9543 -14.8645 -14.7468 -14.7307 -14.7246
   -14.6553 -14.6228 -14.4992 -13.1749 -12.3017 -12.1343 -11.8906 -11.8875
   -11.5003 -11.4026 -10.6508 -10.5826 -10.4465 -10.1926 -10.1883  -9.5144
    -9.2420  -9.0474  -8.9720  -8.7709  -8.7659  -8.4844  -8.4064  -8.3073
    -8.2908  -8.2709  -8.2661  -8.0668  -7.9505  -7.9242  -7.8945  -7.8790
    -7.8398  -7.8070  -7.7907  -7.6912  -7.6854  -7.4995  -7.2623  -7.0941
    -7.0489  -7.0397  -6.9999  -6.7192  -6.6360  -6.6146  -6.4937  -6.4918
    -6.4744  -6.2749  -6.0212  -5.8767  -5.8664  -5.7600  -5.7482  -5.7299
    -5.6239  -5.6195  -5.5171  -5.4822  -5.3967  -5.3746  -5.3280  -5.3229
    -5.2619  -5.2216  -5.2148  -5.2086  -5.2027  -5.0761  -5.0438  -4.9683
    -4.9405  -4.9242  -4.8222  -4.8071  -4.7846  -4.7712  -4.6717  -4.5386
    -4.5299  -4.5096  -4.4439  -4.4116  -4.2414  -4.2371  -4.2208  -4.1859
    -4.1149  -4.1099  -4.0737  -4.0579  -3.8639  -3.8316  -3.8221  -3.8191
    -3.5624  -3.5468  -3.5216  -3.5088  -3.4714  -3.4258  -3.4048  -3.3975
    -3.3815  -3.3733  -3.3482  -3.3244  -3.3103  -3.2321  -3.2082  -3.1716
    -3.1384  -3.0454  -3.0057  -2.9621  -2.9545  -2.8950  -2.8843  -2.7656
    -2.7341  -2.7113  -2.7020  -2.4483  -0.4189  -0.4149  -0.3700  -0.2706
     0.3037   0.3102   0.4573   0.5178   0.5828   0.6074   0.8182   0.8480
     0.9121   0.9280   0.9490   0.9764   1.0164   1.0546   1.2000   1.2690
     1.2965   1.3217   1.4657   1.4852   1.7926   1.8103   1.9501   1.9886
     2.0508   2.1683   2.1963   2.2017   2.2145   2.2632   2.2892   2.5158
     2.5226   2.5426   2.6197   2.6441   2.9094   2.9789   3.0089   3.0256
     3.0630   3.0904   3.1659   3.2215   3.2265   3.2646   3.3038   3.3414
     3.3595   3.4495   3.4807   3.5474   3.6221   3.6587   3.8016   3.8248
     3.8626   3.9044   3.9724   4.0047   4.0864   4.1515   4.2547   4.2590
     4.2819   4.3295   4.4079   4.4224

     the Fermi energy is    -1.7197 ev

!    total energy              =   -3053.91616098 Ry
     estimated scf accuracy    <          2.7E-09 Ry
     smearing contrib. (-TS)   =      -0.00000000 Ry
     internal energy E=F+TS    =   -3053.91616098 Ry

     The total energy is F=E-TS. E is the sum of the following terms:
     one-electron contribution =  -16288.03500332 Ry
     hartree contribution      =    8211.81466601 Ry
     xc contribution           =    -617.49411821 Ry
     ewald contribution        =    5640.15723644 Ry
     Dispersion Correction     =      -0.35894190 Ry

     convergence has been achieved in  23 iterations

     Writing all to output data dir ./test.save/ :
     XML data file, charge density, pseudopotentials, collected wavefunctions
 
     init_run     :     20.81s CPU     21.36s WALL (       1 calls)
     electrons    :   2032.42s CPU   2057.50s WALL (       1 calls)

     Called by init_run:
     wfcinit      :     19.55s CPU     19.91s WALL (       1 calls)
     potinit      :      0.06s CPU      0.09s WALL (       1 calls)
     hinit0       :      0.08s CPU      0.10s WALL (       1 calls)

     Called by electrons:
     c_bands      :   1858.71s CPU   1874.47s WALL (      23 calls)
     sum_band     :    164.59s CPU    170.64s WALL (      23 calls)
     v_of_rho     :      0.89s CPU      1.07s WALL (      24 calls)
     newd         :      8.34s CPU     11.46s WALL (      24 calls)
     mix_rho      :      0.18s CPU      0.20s WALL (      23 calls)
     energy_londo :      0.01s CPU      0.01s WALL (       1 calls)

     Called by c_bands:
     init_us_2    :     42.08s CPU     42.25s WALL (    2538 calls)
     cegterg      :   1778.52s CPU   1793.58s WALL (    1242 calls)

     Called by *egterg:
     cdiaghg      :    256.55s CPU    259.39s WALL (   11889 calls)
     h_psi        :    821.15s CPU    828.92s WALL (   11943 calls)
     s_psi        :    186.56s CPU    187.40s WALL (   11943 calls)
     g_psi        :      5.49s CPU      5.52s WALL (   10647 calls)

     Called by h_psi:
     h_psi:calbec :    184.33s CPU    185.41s WALL (   11943 calls)
     vloc_psi     :    434.70s CPU    438.75s WALL (   11943 calls)
     add_vuspsi   :    189.95s CPU    192.42s WALL (   11943 calls)

     General routines
     calbec       :    235.06s CPU    236.42s WALL (   13185 calls)
     fft          :      0.62s CPU      0.74s WALL (     310 calls)
     ffts         :      0.04s CPU      0.05s WALL (      47 calls)
     fftw         :    404.50s CPU    408.13s WALL ( 2358820 calls)
     interpolate  :      0.05s CPU      0.07s WALL (      24 calls)
 
     Parallel routines
 
     PWSCF        :   2062.15s CPU   2093.81s WALL

 
   This run was terminated on:  19:39:55  17Feb2026            

=------------------------------------------------------------------------------=
   JOB DONE.
=------------------------------------------------------------------------------=
