
     Program BANDS v.7.3.1 starts on 20Feb2026 at  8:47:44 

     This program is part of the open-source Quantum ESPRESSO suite
     for quantum simulation of materials; please cite
         "P. Giannozzi et al., J. Phys.:Condens. Matter 21 395502 (2009);
         "P. Giannozzi et al., J. Phys.:Condens. Matter 29 465901 (2017);
         "P. Giannozzi et al., J. Chem. Phys. 152 154105 (2020);
          URL http://www.quantum-espresso.org", 
     in publications or presentations arising from this work. More details at
     http://www.quantum-espresso.org/quote

     Parallel version (MPI & OpenMP), running on      64 processor cores
     Number of MPI processes:                64
     Threads/MPI process:                     1

     MPI processes distributed on     1 nodes
     R & G space division:  proc/nbgrp/npool/nimage =      64
     417415 MiB available memory on the printing compute node when the environment starts
 

     Reading xml data from directory:

     ./test.save/

     IMPORTANT: XC functional enforced from input :
     Exchange-correlation= PBE
                           (   1   4   3   4   0   0   0)
     Any further DFT definition will be discarded
     Please, verify this is what you really want

 
     Parallelization info
     --------------------
     sticks:   dense  smooth     PW     G-vecs:    dense   smooth      PW
     Min         180      90     23                33956    12002    1631
     Max         181      91     24                33969    12012    1652
     Sum       11557    5773   1531              2173495   768463  105205
 
     Using Slab Decomposition
 

     negative rho (up, down):  3.607E-03 0.000E+00
     Reading collected, re-writing distributed wavefunctions
     high-symmetry point:  0.0000 0.0000 0.0000   x coordinate   0.0000
     high-symmetry point:  0.5000 0.2887 0.0000   x coordinate   0.5774
     high-symmetry point:  0.3333 0.5773 0.0000   x coordinate   0.9107
     high-symmetry point:  0.0000 0.0000 0.0000   x coordinate   1.5773
     high-symmetry point:  0.0000 0.0000 0.2308   x coordinate   1.8081
     high-symmetry point:  0.5000 0.2887 0.2308   x coordinate   2.3854
     high-symmetry point:  0.3333 0.5773 0.2308   x coordinate   2.7187
     high-symmetry point:  0.0000 0.0000 0.2308   x coordinate   3.3853
     high-symmetry point:  0.5000 0.2887 0.2308   x coordinate   3.9627
     high-symmetry point:  0.5000 0.2887 0.0000   x coordinate   4.1935
     high-symmetry point:  0.3333 0.5773 0.0000   x coordinate   4.5268
     high-symmetry point:  0.3333 0.5773 0.2308   x coordinate   4.7577

     Plottable bands (eV) written to file bands.dat.gnu
     Bands written to file bands.dat

 **************************************************************************

                    xk=(   0.00000,   0.00000,   0.00000  )

     point group C_1 (1)    
     there are  1 classes
     the character table:

       E    
A      1.00

     the symmetry operations in each class and the name of the first element:

     E        1
                                                                 

     Band symmetry, C_1 (1)     point group:

     e(  1 -  1) =   -113.76307  eV     1   --> A              
     e(  2 -  2) =   -113.75638  eV     1   --> A              
     e(  3 -  3) =   -113.75599  eV     1   --> A              
     e(  4 -  4) =   -113.56650  eV     1   --> A              
     e(  5 -  5) =    -71.23478  eV     1   --> A              
     e(  6 -  6) =    -71.23344  eV     1   --> A              
     e(  7 -  7) =    -71.22761  eV     1   --> A              
     e(  8 -  8) =    -71.22733  eV     1   --> A              
     e(  9 -  9) =    -71.22719  eV     1   --> A              
     e( 10 - 10) =    -71.22694  eV     1   --> A              
     e( 11 - 11) =    -71.08145  eV     1   --> A              
     e( 12 - 12) =    -71.07909  eV     1   --> A              
     e( 13 - 13) =    -71.06591  eV     1   --> A              
     e( 14 - 14) =    -71.05949  eV     1   --> A              
     e( 15 - 15) =    -71.05897  eV     1   --> A              
     e( 16 - 16) =    -70.78644  eV     1   --> A              
     e( 17 - 17) =    -23.42917  eV     1   --> A              
     e( 18 - 18) =    -20.20080  eV     1   --> A              
     e( 19 - 19) =    -18.31472  eV     1   --> A              
     e( 20 - 20) =    -18.15554  eV     1   --> A              
     e( 21 - 21) =    -18.15110  eV     1   --> A              
     e( 22 - 22) =    -18.13762  eV     1   --> A              
     e( 23 - 23) =    -17.34771  eV     1   --> A              
     e( 24 - 24) =    -17.34316  eV     1   --> A              
     e( 25 - 25) =    -17.33411  eV     1   --> A              
     e( 26 - 26) =    -17.30090  eV     1   --> A              
     e( 27 - 27) =    -16.91198  eV     1   --> A              
     e( 28 - 28) =    -16.91113  eV     1   --> A              
     e( 29 - 29) =    -16.86828  eV     1   --> A              
     e( 30 - 30) =    -16.86510  eV     1   --> A              
     e( 31 - 31) =    -16.85724  eV     1   --> A              
     e( 32 - 32) =    -16.65489  eV     1   --> A              
     e( 33 - 33) =    -16.65376  eV     1   --> A              
     e( 34 - 34) =    -16.65244  eV     1   --> A              
     e( 35 - 35) =    -16.62581  eV     1   --> A              
     e( 36 - 36) =    -16.62354  eV     1   --> A              
     e( 37 - 37) =    -16.62182  eV     1   --> A              
     e( 38 - 38) =    -16.61516  eV     1   --> A              
     e( 39 - 39) =    -16.61426  eV     1   --> A              
     e( 40 - 40) =    -16.60477  eV     1   --> A              
     e( 41 - 41) =    -16.60402  eV     1   --> A              
     e( 42 - 42) =    -16.59912  eV     1   --> A              
     e( 43 - 43) =    -16.58750  eV     1   --> A              
     e( 44 - 44) =    -16.51162  eV     1   --> A              
     e( 45 - 45) =    -16.51014  eV     1   --> A              
     e( 46 - 46) =    -16.49987  eV     1   --> A              
     e( 47 - 47) =    -15.86175  eV     1   --> A              
     e( 48 - 48) =    -15.82645  eV     1   --> A              
     e( 49 - 49) =    -15.82372  eV     1   --> A              
     e( 50 - 50) =    -15.78707  eV     1   --> A              
     e( 51 - 51) =    -15.37805  eV     1   --> A              
     e( 52 - 52) =    -15.36918  eV     1   --> A              
     e( 53 - 53) =    -15.36306  eV     1   --> A              
     e( 54 - 54) =    -15.21236  eV     1   --> A              
     e( 55 - 55) =    -15.20603  eV     1   --> A              
     e( 56 - 56) =    -15.09732  eV     1   --> A              
     e( 57 - 57) =    -15.09573  eV     1   --> A              
     e( 58 - 58) =    -15.08795  eV     1   --> A              
     e( 59 - 59) =    -14.73965  eV     1   --> A              
     e( 60 - 60) =    -14.73737  eV     1   --> A              
     e( 61 - 61) =    -14.73359  eV     1   --> A              
     e( 62 - 62) =    -14.61540  eV     1   --> A              
     e( 63 - 63) =    -14.61465  eV     1   --> A              
     e( 64 - 64) =    -12.61987  eV     1   --> A              
     e( 65 - 65) =    -12.23620  eV     1   --> A              
     e( 66 - 66) =    -11.96933  eV     1   --> A              
     e( 67 - 67) =    -11.95840  eV     1   --> A              
     e( 68 - 68) =    -11.94380  eV     1   --> A              
     e( 69 - 69) =    -10.91121  eV     1   --> A              
     e( 70 - 70) =    -10.81378  eV     1   --> A              
     e( 71 - 71) =    -10.28990  eV     1   --> A              
     e( 72 - 72) =    -10.28478  eV     1   --> A              
     e( 73 - 73) =    -10.27159  eV     1   --> A              
     e( 74 - 74) =     -9.33774  eV     1   --> A              
     e( 75 - 75) =     -9.18936  eV     1   --> A              
     e( 76 - 76) =     -8.92614  eV     1   --> A              
     e( 77 - 77) =     -8.91945  eV     1   --> A              
     e( 78 - 78) =     -8.91200  eV     1   --> A              
     e( 79 - 79) =     -8.57445  eV     1   --> A              
     e( 80 - 80) =     -8.23341  eV     1   --> A              
     e( 81 - 81) =     -8.21805  eV     1   --> A              
     e( 82 - 82) =     -8.21365  eV     1   --> A              
     e( 83 - 83) =     -8.15087  eV     1   --> A              
     e( 84 - 84) =     -8.13738  eV     1   --> A              
     e( 85 - 85) =     -7.92219  eV     1   --> A              
     e( 86 - 86) =     -7.90862  eV     1   --> A              
     e( 87 - 87) =     -7.90059  eV     1   --> A              
     e( 88 - 88) =     -7.68855  eV     1   --> A              
     e( 89 - 89) =     -7.62437  eV     1   --> A              
     e( 90 - 90) =     -7.62154  eV     1   --> A              
     e( 91 - 91) =     -7.54779  eV     1   --> A              
     e( 92 - 92) =     -7.54641  eV     1   --> A              
     e( 93 - 93) =     -7.47608  eV     1   --> A              
     e( 94 - 94) =     -7.23981  eV     1   --> A              
     e( 95 - 95) =     -6.99072  eV     1   --> A              
     e( 96 - 96) =     -6.98991  eV     1   --> A              
     e( 97 - 97) =     -6.97767  eV     1   --> A              
     e( 98 - 98) =     -6.88974  eV     1   --> A              
     e( 99 - 99) =     -6.87145  eV     1   --> A              
     e(100 -100) =     -6.85906  eV     1   --> A              
     e(101 -101) =     -6.80624  eV     1   --> A              
     e(102 -102) =     -6.52082  eV     1   --> A              
     e(103 -103) =     -6.04296  eV     1   --> A              
     e(104 -104) =     -6.01811  eV     1   --> A              
     e(105 -105) =     -6.01200  eV     1   --> A              
     e(106 -106) =     -5.76619  eV     1   --> A              
     e(107 -107) =     -5.74661  eV     1   --> A              
     e(108 -108) =     -5.71356  eV     1   --> A              
     e(109 -109) =     -5.70910  eV     1   --> A              
     e(110 -110) =     -5.46358  eV     1   --> A              
     e(111 -111) =     -5.45462  eV     1   --> A              
     e(112 -112) =     -5.43728  eV     1   --> A              
     e(113 -113) =     -5.35693  eV     1   --> A              
     e(114 -114) =     -5.35058  eV     1   --> A              
     e(115 -115) =     -5.34406  eV     1   --> A              
     e(116 -116) =     -5.23444  eV     1   --> A              
     e(117 -117) =     -5.22708  eV     1   --> A              
     e(118 -118) =     -5.21489  eV     1   --> A              
     e(119 -119) =     -5.02515  eV     1   --> A              
     e(120 -120) =     -5.01844  eV     1   --> A              
     e(121 -121) =     -5.01576  eV     1   --> A              
     e(122 -122) =     -4.95041  eV     1   --> A              
     e(123 -123) =     -4.93816  eV     1   --> A              
     e(124 -124) =     -4.74231  eV     1   --> A              
     e(125 -125) =     -4.72740  eV     1   --> A              
     e(126 -126) =     -4.69243  eV     1   --> A              
     e(127 -127) =     -4.57454  eV     1   --> A              
     e(128 -128) =     -4.56635  eV     1   --> A              
     e(129 -129) =     -4.53960  eV     1   --> A              
     e(130 -130) =     -4.38929  eV     1   --> A              
     e(131 -131) =     -4.34345  eV     1   --> A              
     e(132 -132) =     -4.33456  eV     1   --> A              
     e(133 -133) =     -4.32035  eV     1   --> A              
     e(134 -134) =     -4.31746  eV     1   --> A              
     e(135 -135) =     -4.30547  eV     1   --> A              
     e(136 -136) =     -4.28365  eV     1   --> A              
     e(137 -137) =     -4.22793  eV     1   --> A              
     e(138 -138) =     -4.18443  eV     1   --> A              
     e(139 -139) =     -4.10373  eV     1   --> A              
     e(140 -140) =     -3.89726  eV     1   --> A              
     e(141 -141) =     -3.85528  eV     1   --> A              
     e(142 -142) =     -3.84701  eV     1   --> A              
     e(143 -143) =     -3.77793  eV     1   --> A              
     e(144 -144) =     -3.70664  eV     1   --> A              
     e(145 -145) =     -3.63412  eV     1   --> A              
     e(146 -146) =     -3.62469  eV     1   --> A              
     e(147 -147) =     -3.50165  eV     1   --> A              
     e(148 -148) =     -3.49914  eV     1   --> A              
     e(149 -149) =     -3.49843  eV     1   --> A              
     e(150 -150) =     -3.45091  eV     1   --> A              
     e(151 -151) =     -3.43199  eV     1   --> A              
     e(152 -152) =     -3.42856  eV     1   --> A              
     e(153 -153) =     -3.35998  eV     1   --> A              
     e(154 -154) =     -3.35147  eV     1   --> A              
     e(155 -155) =     -3.32695  eV     1   --> A              
     e(156 -156) =     -3.28178  eV     1   --> A              
     e(157 -157) =     -3.28095  eV     1   --> A              
     e(158 -158) =     -3.14059  eV     1   --> A              
     e(159 -159) =     -3.13696  eV     1   --> A              
     e(160 -160) =     -2.99789  eV     1   --> A              
     e(161 -161) =     -2.92818  eV     1   --> A              
     e(162 -162) =     -2.91773  eV     1   --> A              
     e(163 -163) =     -2.91309  eV     1   --> A              
     e(164 -164) =     -2.80394  eV     1   --> A              
     e(165 -165) =     -2.79323  eV     1   --> A              
     e(166 -166) =     -2.74306  eV     1   --> A              
     e(167 -167) =     -2.55589  eV     1   --> A              
     e(168 -168) =     -2.54903  eV     1   --> A              
     e(169 -169) =     -0.85213  eV     1   --> A              
     e(170 -170) =     -0.39169  eV     1   --> A              
     e(171 -171) =     -0.37968  eV     1   --> A              
     e(172 -172) =     -0.35621  eV     1   --> A              
     e(173 -173) =      0.11483  eV     1   --> A              
     e(174 -174) =      0.44334  eV     1   --> A              
     e(175 -175) =      0.46759  eV     1   --> A              
     e(176 -176) =      0.47479  eV     1   --> A              
     e(177 -177) =      0.48236  eV     1   --> A              
     e(178 -178) =      0.48789  eV     1   --> A              
     e(179 -179) =      0.53004  eV     1   --> A              
     e(180 -180) =      0.75606  eV     1   --> A              
     e(181 -181) =      0.76908  eV     1   --> A              
     e(182 -182) =      0.77640  eV     1   --> A              
     e(183 -183) =      0.94835  eV     1   --> A              
     e(184 -184) =      0.95348  eV     1   --> A              
     e(185 -185) =      0.98131  eV     1   --> A              
     e(186 -186) =      0.99102  eV     1   --> A              
     e(187 -187) =      0.99833  eV     1   --> A              
     e(188 -188) =      1.24656  eV     1   --> A              
     e(189 -189) =      1.41280  eV     1   --> A              
     e(190 -190) =      1.42986  eV     1   --> A              
     e(191 -191) =      1.43749  eV     1   --> A              
     e(192 -192) =      1.52652  eV     1   --> A              
     e(193 -193) =      1.59353  eV     1   --> A              
     e(194 -194) =      1.74378  eV     1   --> A              
     e(195 -195) =      1.74874  eV     1   --> A              
     e(196 -196) =      1.81954  eV     1   --> A              
     e(197 -197) =      1.87217  eV     1   --> A              
     e(198 -198) =      2.18284  eV     1   --> A              
     e(199 -199) =      2.18793  eV     1   --> A              
     e(200 -200) =      2.32271  eV     1   --> A              
     e(201 -201) =      2.32706  eV     1   --> A              
     e(202 -202) =      2.36914  eV     1   --> A              
     e(203 -203) =      2.54937  eV     1   --> A              
     e(204 -204) =      2.56289  eV     1   --> A              
     e(205 -205) =      2.57568  eV     1   --> A              
     e(206 -206) =      2.68564  eV     1   --> A              
     e(207 -207) =      2.74824  eV     1   --> A              
     e(208 -208) =      2.82624  eV     1   --> A              
     e(209 -209) =      2.93988  eV     1   --> A              
     e(210 -210) =      2.97193  eV     1   --> A              
     e(211 -211) =      2.98718  eV     1   --> A              
     e(212 -212) =      2.99252  eV     1   --> A              
     e(213 -213) =      3.00789  eV     1   --> A              
     e(214 -214) =      3.12044  eV     1   --> A              
     e(215 -215) =      3.14795  eV     1   --> A              
     e(216 -216) =      3.15912  eV     1   --> A              
     e(217 -217) =      3.22684  eV     1   --> A              
     e(218 -218) =      3.31054  eV     1   --> A              
     e(219 -219) =      3.37901  eV     1   --> A              
     e(220 -220) =      3.39243  eV     1   --> A              
     e(221 -221) =      3.42656  eV     1   --> A              
     e(222 -222) =      3.48202  eV     1   --> A              
     e(223 -223) =      3.50650  eV     1   --> A              
     e(224 -224) =      3.53966  eV     1   --> A              
     e(225 -225) =      3.56824  eV     1   --> A              
     e(226 -226) =      3.70015  eV     1   --> A              
     e(227 -227) =      3.87640  eV     1   --> A              
     e(228 -228) =      3.94022  eV     1   --> A              
     e(229 -229) =      3.99049  eV     1   --> A              
     e(230 -230) =      4.03312  eV     1   --> A              
     e(231 -231) =      4.05081  eV     1   --> A              
     e(232 -232) =      4.07684  eV     1   --> A              
     e(233 -233) =      4.08945  eV     1   --> A              
     e(234 -234) =      4.10668  eV     1   --> A              
     e(235 -235) =      4.16376  eV     1   --> A              
     e(236 -236) =      4.17796  eV     1   --> A              
     e(237 -237) =      4.21427  eV     1   --> A              
     e(238 -238) =      4.25303  eV     1   --> A              
     e(239 -239) =      4.28009  eV     1   --> A              
     e(240 -240) =      4.30147  eV     1   --> A              
     e(241 -241) =      4.32252  eV     1   --> A              
     e(242 -242) =      4.34030  eV     1   --> A              
     e(243 -243) =      4.34523  eV     1   --> A              
     e(244 -244) =      4.37368  eV     1   --> A              
     e(245 -245) =      4.42265  eV     1   --> A              
     e(246 -246) =      4.44638  eV     1   --> A              
     e(247 -247) =      4.45736  eV     1   --> A              
     e(248 -248) =      4.54447  eV     1   --> A              
     e(249 -249) =      4.57127  eV     1   --> A              
     e(250 -250) =      4.62858  eV     1   --> A              

 **************************************************************************

 **************************************************************************

                    xk=(   0.02500,   0.01443,   0.00000  )

     Band symmetry, C_1 (1)     point group:

     e(  1 -  1) =   -113.76307  eV     1   --> A              
     e(  2 -  2) =   -113.75638  eV     1   --> A              
     e(  3 -  3) =   -113.75599  eV     1   --> A              
     e(  4 -  4) =   -113.56650  eV     1   --> A              
     e(  5 -  5) =    -71.23478  eV     1   --> A              
     e(  6 -  6) =    -71.23344  eV     1   --> A              
     e(  7 -  7) =    -71.22761  eV     1   --> A              
     e(  8 -  8) =    -71.22733  eV     1   --> A              
     e(  9 -  9) =    -71.22719  eV     1   --> A              
     e( 10 - 10) =    -71.22694  eV     1   --> A              
     e( 11 - 11) =    -71.08145  eV     1   --> A              
     e( 12 - 12) =    -71.07909  eV     1   --> A              
     e( 13 - 13) =    -71.06591  eV     1   --> A              
     e( 14 - 14) =    -71.05949  eV     1   --> A              
     e( 15 - 15) =    -71.05897  eV     1   --> A              
     e( 16 - 16) =    -70.78644  eV     1   --> A              
     e( 17 - 17) =    -23.42917  eV     1   --> A              
     e( 18 - 18) =    -20.20080  eV     1   --> A              
     e( 19 - 19) =    -18.31448  eV     1   --> A              
     e( 20 - 20) =    -18.15560  eV     1   --> A              
     e( 21 - 21) =    -18.15125  eV     1   --> A              
     e( 22 - 22) =    -18.13770  eV     1   --> A              
     e( 23 - 23) =    -17.34767  eV     1   --> A              
     e( 24 - 24) =    -17.34309  eV     1   --> A              
     e( 25 - 25) =    -17.33407  eV     1   --> A              
     e( 26 - 26) =    -17.30102  eV     1   --> A              
     e( 27 - 27) =    -16.91166  eV     1   --> A              
     e( 28 - 28) =    -16.91095  eV     1   --> A              
     e( 29 - 29) =    -16.86849  eV     1   --> A              
     e( 30 - 30) =    -16.86535  eV     1   --> A              
     e( 31 - 31) =    -16.85748  eV     1   --> A              
     e( 32 - 32) =    -16.65481  eV     1   --> A              
     e( 33 - 33) =    -16.65396  eV     1   --> A              
     e( 34 - 34) =    -16.65227  eV     1   --> A              
     e( 35 - 35) =    -16.62585  eV     1   --> A              
     e( 36 - 36) =    -16.62354  eV     1   --> A              
     e( 37 - 37) =    -16.62176  eV     1   --> A              
     e( 38 - 38) =    -16.61515  eV     1   --> A              
     e( 39 - 39) =    -16.61425  eV     1   --> A              
     e( 40 - 40) =    -16.60479  eV     1   --> A              
     e( 41 - 41) =    -16.60404  eV     1   --> A              
     e( 42 - 42) =    -16.59914  eV     1   --> A              
     e( 43 - 43) =    -16.58749  eV     1   --> A              
     e( 44 - 44) =    -16.51160  eV     1   --> A              
     e( 45 - 45) =    -16.51035  eV     1   --> A              
     e( 46 - 46) =    -16.49990  eV     1   --> A              
     e( 47 - 47) =    -15.86123  eV     1   --> A              
     e( 48 - 48) =    -15.82579  eV     1   --> A              
     e( 49 - 49) =    -15.82337  eV     1   --> A              
     e( 50 - 50) =    -15.78686  eV     1   --> A              
     e( 51 - 51) =    -15.37831  eV     1   --> A              
     e( 52 - 52) =    -15.36974  eV     1   --> A              
     e( 53 - 53) =    -15.36324  eV     1   --> A              
     e( 54 - 54) =    -15.21291  eV     1   --> A              
     e( 55 - 55) =    -15.20671  eV     1   --> A              
     e( 56 - 56) =    -15.09700  eV     1   --> A              
     e( 57 - 57) =    -15.09505  eV     1   --> A              
     e( 58 - 58) =    -15.08756  eV     1   --> A              
     e( 59 - 59) =    -14.73978  eV     1   --> A              
     e( 60 - 60) =    -14.73729  eV     1   --> A              
     e( 61 - 61) =    -14.73373  eV     1   --> A              
     e( 62 - 62) =    -14.61589  eV     1   --> A              
     e( 63 - 63) =    -14.61509  eV     1   --> A              
     e( 64 - 64) =    -12.61869  eV     1   --> A              
     e( 65 - 65) =    -12.23620  eV     1   --> A              
     e( 66 - 66) =    -11.96951  eV     1   --> A              
     e( 67 - 67) =    -11.95863  eV     1   --> A              
     e( 68 - 68) =    -11.94398  eV     1   --> A              
     e( 69 - 69) =    -10.91114  eV     1   --> A              
     e( 70 - 70) =    -10.81308  eV     1   --> A              
     e( 71 - 71) =    -10.28970  eV     1   --> A              
     e( 72 - 72) =    -10.28520  eV     1   --> A              
     e( 73 - 73) =    -10.27159  eV     1   --> A              
     e( 74 - 74) =     -9.33774  eV     1   --> A              
     e( 75 - 75) =     -9.18897  eV     1   --> A              
     e( 76 - 76) =     -8.92562  eV     1   --> A              
     e( 77 - 77) =     -8.91951  eV     1   --> A              
     e( 78 - 78) =     -8.91171  eV     1   --> A              
     e( 79 - 79) =     -8.57449  eV     1   --> A              
     e( 80 - 80) =     -8.23405  eV     1   --> A              
     e( 81 - 81) =     -8.21847  eV     1   --> A              
     e( 82 - 82) =     -8.21452  eV     1   --> A              
     e( 83 - 83) =     -8.15068  eV     1   --> A              
     e( 84 - 84) =     -8.13792  eV     1   --> A              
     e( 85 - 85) =     -7.92253  eV     1   --> A              
     e( 86 - 86) =     -7.90907  eV     1   --> A              
     e( 87 - 87) =     -7.90152  eV     1   --> A              
     e( 88 - 88) =     -7.68920  eV     1   --> A              
     e( 89 - 89) =     -7.62544  eV     1   --> A              
     e( 90 - 90) =     -7.62241  eV     1   --> A              
     e( 91 - 91) =     -7.54884  eV     1   --> A              
     e( 92 - 92) =     -7.54597  eV     1   --> A              
     e( 93 - 93) =     -7.47629  eV     1   --> A              
     e( 94 - 94) =     -7.23978  eV     1   --> A              
     e( 95 - 95) =     -6.99234  eV     1   --> A              
     e( 96 - 96) =     -6.99077  eV     1   --> A              
     e( 97 - 97) =     -6.97882  eV     1   --> A              
     e( 98 - 98) =     -6.88696  eV     1   --> A              
     e( 99 - 99) =     -6.86951  eV     1   --> A              
     e(100 -100) =     -6.85660  eV     1   --> A              
     e(101 -101) =     -6.80426  eV     1   --> A              
     e(102 -102) =     -6.52071  eV     1   --> A              
     e(103 -103) =     -6.04228  eV     1   --> A              
     e(104 -104) =     -6.01735  eV     1   --> A              
     e(105 -105) =     -6.01128  eV     1   --> A              
     e(106 -106) =     -5.76624  eV     1   --> A              
     e(107 -107) =     -5.74668  eV     1   --> A              
     e(108 -108) =     -5.71277  eV     1   --> A              
     e(109 -109) =     -5.70882  eV     1   --> A              
     e(110 -110) =     -5.46371  eV     1   --> A              
     e(111 -111) =     -5.45445  eV     1   --> A              
     e(112 -112) =     -5.43703  eV     1   --> A              
     e(113 -113) =     -5.35778  eV     1   --> A              
     e(114 -114) =     -5.35102  eV     1   --> A              
     e(115 -115) =     -5.34294  eV     1   --> A              
     e(116 -116) =     -5.23489  eV     1   --> A              
     e(117 -117) =     -5.22694  eV     1   --> A              
     e(118 -118) =     -5.21481  eV     1   --> A              
     e(119 -119) =     -5.02607  eV     1   --> A              
     e(120 -120) =     -5.01789  eV     1   --> A              
     e(121 -121) =     -5.01554  eV     1   --> A              
     e(122 -122) =     -4.95094  eV     1   --> A              
     e(123 -123) =     -4.93899  eV     1   --> A              
     e(124 -124) =     -4.74267  eV     1   --> A              
     e(125 -125) =     -4.72743  eV     1   --> A              
     e(126 -126) =     -4.69251  eV     1   --> A              
     e(127 -127) =     -4.57507  eV     1   --> A              
     e(128 -128) =     -4.56690  eV     1   --> A              
     e(129 -129) =     -4.54085  eV     1   --> A              
     e(130 -130) =     -4.38922  eV     1   --> A              
     e(131 -131) =     -4.34613  eV     1   --> A              
     e(132 -132) =     -4.33837  eV     1   --> A              
     e(133 -133) =     -4.31861  eV     1   --> A              
     e(134 -134) =     -4.31341  eV     1   --> A              
     e(135 -135) =     -4.30407  eV     1   --> A              
     e(136 -136) =     -4.28204  eV     1   --> A              
     e(137 -137) =     -4.22747  eV     1   --> A              
     e(138 -138) =     -4.18355  eV     1   --> A              
     e(139 -139) =     -4.10268  eV     1   --> A              
     e(140 -140) =     -3.89683  eV     1   --> A              
     e(141 -141) =     -3.85501  eV     1   --> A              
     e(142 -142) =     -3.84652  eV     1   --> A              
     e(143 -143) =     -3.77756  eV     1   --> A              
     e(144 -144) =     -3.70622  eV     1   --> A              
     e(145 -145) =     -3.63389  eV     1   --> A              
     e(146 -146) =     -3.62425  eV     1   --> A              
     e(147 -147) =     -3.50288  eV     1   --> A              
     e(148 -148) =     -3.49897  eV     1   --> A              
     e(149 -149) =     -3.49770  eV     1   --> A              
     e(150 -150) =     -3.45047  eV     1   --> A              
     e(151 -151) =     -3.43294  eV     1   --> A              
     e(152 -152) =     -3.42719  eV     1   --> A              
     e(153 -153) =     -3.35992  eV     1   --> A              
     e(154 -154) =     -3.35164  eV     1   --> A              
     e(155 -155) =     -3.32746  eV     1   --> A              
     e(156 -156) =     -3.28213  eV     1   --> A              
     e(157 -157) =     -3.28103  eV     1   --> A              
     e(158 -158) =     -3.14143  eV     1   --> A              
     e(159 -159) =     -3.13949  eV     1   --> A              
     e(160 -160) =     -2.99806  eV     1   --> A              
     e(161 -161) =     -2.92925  eV     1   --> A              
     e(162 -162) =     -2.91726  eV     1   --> A              
     e(163 -163) =     -2.91323  eV     1   --> A              
     e(164 -164) =     -2.80387  eV     1   --> A              
     e(165 -165) =     -2.79465  eV     1   --> A              
     e(166 -166) =     -2.74326  eV     1   --> A              
     e(167 -167) =     -2.55722  eV     1   --> A              
     e(168 -168) =     -2.55158  eV     1   --> A              
     e(169 -169) =     -0.84900  eV     1   --> A              
     e(170 -170) =     -0.39186  eV     1   --> A              
     e(171 -171) =     -0.37944  eV     1   --> A              
     e(172 -172) =     -0.35604  eV     1   --> A              
     e(173 -173) =      0.11692  eV     1   --> A              
     e(174 -174) =      0.44235  eV     1   --> A              
     e(175 -175) =      0.46394  eV     1   --> A              
     e(176 -176) =      0.47562  eV     1   --> A              
     e(177 -177) =      0.48277  eV     1   --> A              
     e(178 -178) =      0.49200  eV     1   --> A              
     e(179 -179) =      0.53159  eV     1   --> A              
     e(180 -180) =      0.75601  eV     1   --> A              
     e(181 -181) =      0.76967  eV     1   --> A              
     e(182 -182) =      0.77643  eV     1   --> A              
     e(183 -183) =      0.94801  eV     1   --> A              
     e(184 -184) =      0.95359  eV     1   --> A              
     e(185 -185) =      0.98034  eV     1   --> A              
     e(186 -186) =      0.99115  eV     1   --> A              
     e(187 -187) =      0.99722  eV     1   --> A              
     e(188 -188) =      1.24662  eV     1   --> A              
     e(189 -189) =      1.41196  eV     1   --> A              
     e(190 -190) =      1.42897  eV     1   --> A              
     e(191 -191) =      1.43711  eV     1   --> A              
     e(192 -192) =      1.52632  eV     1   --> A              
     e(193 -193) =      1.59345  eV     1   --> A              
     e(194 -194) =      1.74351  eV     1   --> A              
     e(195 -195) =      1.74923  eV     1   --> A              
     e(196 -196) =      1.81930  eV     1   --> A              
     e(197 -197) =      1.87217  eV     1   --> A              
     e(198 -198) =      2.18364  eV     1   --> A              
     e(199 -199) =      2.18767  eV     1   --> A              
     e(200 -200) =      2.32013  eV     1   --> A              
     e(201 -201) =      2.32440  eV     1   --> A              
     e(202 -202) =      2.36950  eV     1   --> A              
     e(203 -203) =      2.55084  eV     1   --> A              
     e(204 -204) =      2.56387  eV     1   --> A              
     e(205 -205) =      2.57704  eV     1   --> A              
     e(206 -206) =      2.68619  eV     1   --> A              
     e(207 -207) =      2.74658  eV     1   --> A              
     e(208 -208) =      2.82575  eV     1   --> A              
     e(209 -209) =      2.93952  eV     1   --> A              
     e(210 -210) =      2.97120  eV     1   --> A              
     e(211 -211) =      2.98682  eV     1   --> A              
     e(212 -212) =      2.99147  eV     1   --> A              
     e(213 -213) =      3.00845  eV     1   --> A              
     e(214 -214) =      3.11949  eV     1   --> A              
     e(215 -215) =      3.14750  eV     1   --> A              
     e(216 -216) =      3.15877  eV     1   --> A              
     e(217 -217) =      3.22794  eV     1   --> A              
     e(218 -218) =      3.31062  eV     1   --> A              
     e(219 -219) =      3.37947  eV     1   --> A              
     e(220 -220) =      3.39277  eV     1   --> A              
     e(221 -221) =      3.42870  eV     1   --> A              
     e(222 -222) =      3.48028  eV     1   --> A              
     e(223 -223) =      3.50445  eV     1   --> A              
     e(224 -224) =      3.53468  eV     1   --> A              
     e(225 -225) =      3.58201  eV     1   --> A              
     e(226 -226) =      3.70328  eV     1   --> A              
     e(227 -227) =      3.87130  eV     1   --> A              
     e(228 -228) =      3.94331  eV     1   --> A              
     e(229 -229) =      3.98673  eV     1   --> A              
     e(230 -230) =      4.01457  eV     1   --> A              
     e(231 -231) =      4.05263  eV     1   --> A              
     e(232 -232) =      4.07715  eV     1   --> A              
     e(233 -233) =      4.09339  eV     1   --> A              
     e(234 -234) =      4.11369  eV     1   --> A              
     e(235 -235) =      4.16424  eV     1   --> A              
     e(236 -236) =      4.17787  eV     1   --> A              
     e(237 -237) =      4.21461  eV     1   --> A              
     e(238 -238) =      4.25127  eV     1   --> A              
     e(239 -239) =      4.27910  eV     1   --> A              
     e(240 -240) =      4.30142  eV     1   --> A              
     e(241 -241) =      4.32660  eV     1   --> A              
     e(242 -242) =      4.34098  eV     1   --> A              
     e(243 -243) =      4.35185  eV     1   --> A              
     e(244 -244) =      4.37342  eV     1   --> A              
     e(245 -245) =      4.42599  eV     1   --> A              
     e(246 -246) =      4.44956  eV     1   --> A              
     e(247 -247) =      4.45796  eV     1   --> A              
     e(248 -248) =      4.53627  eV     1   --> A              
     e(249 -249) =      4.57368  eV     1   --> A              
     e(250 -250) =      4.61454  eV     1   --> A              

 **************************************************************************

 **************************************************************************

                    xk=(   0.05000,   0.02887,   0.00000  )

     Band symmetry, C_1 (1)     point group:

     e(  1 -  1) =   -113.76307  eV     1   --> A              
     e(  2 -  2) =   -113.75638  eV     1   --> A              
     e(  3 -  3) =   -113.75599  eV     1   --> A              
     e(  4 -  4) =   -113.56650  eV     1   --> A              
     e(  5 -  5) =    -71.23478  eV     1   --> A              
     e(  6 -  6) =    -71.23344  eV     1   --> A              
     e(  7 -  7) =    -71.22761  eV     1   --> A              
     e(  8 -  8) =    -71.22733  eV     1   --> A              
     e(  9 -  9) =    -71.22719  eV     1   --> A              
     e( 10 - 10) =    -71.22694  eV     1   --> A              
     e( 11 - 11) =    -71.08145  eV     1   --> A              
     e( 12 - 12) =    -71.07909  eV     1   --> A              
     e( 13 - 13) =    -71.06591  eV     1   --> A              
     e( 14 - 14) =    -71.05949  eV     1   --> A              
     e( 15 - 15) =    -71.05897  eV     1   --> A              
     e( 16 - 16) =    -70.78644  eV     1   --> A              
     e( 17 - 17) =    -23.42917  eV     1   --> A              
     e( 18 - 18) =    -20.20080  eV     1   --> A              
     e( 19 - 19) =    -18.31379  eV     1   --> A              
     e( 20 - 20) =    -18.15581  eV     1   --> A              
     e( 21 - 21) =    -18.15168  eV     1   --> A              
     e( 22 - 22) =    -18.13796  eV     1   --> A              
     e( 23 - 23) =    -17.34755  eV     1   --> A              
     e( 24 - 24) =    -17.34289  eV     1   --> A              
     e( 25 - 25) =    -17.33394  eV     1   --> A              
     e( 26 - 26) =    -17.30139  eV     1   --> A              
     e( 27 - 27) =    -16.91131  eV     1   --> A              
     e( 28 - 28) =    -16.90983  eV     1   --> A              
     e( 29 - 29) =    -16.86914  eV     1   --> A              
     e( 30 - 30) =    -16.86606  eV     1   --> A              
     e( 31 - 31) =    -16.85819  eV     1   --> A              
     e( 32 - 32) =    -16.65498  eV     1   --> A              
     e( 33 - 33) =    -16.65406  eV     1   --> A              
     e( 34 - 34) =    -16.65184  eV     1   --> A              
     e( 35 - 35) =    -16.62598  eV     1   --> A              
     e( 36 - 36) =    -16.62355  eV     1   --> A              
     e( 37 - 37) =    -16.62163  eV     1   --> A              
     e( 38 - 38) =    -16.61513  eV     1   --> A              
     e( 39 - 39) =    -16.61423  eV     1   --> A              
     e( 40 - 40) =    -16.60487  eV     1   --> A              
     e( 41 - 41) =    -16.60407  eV     1   --> A              
     e( 42 - 42) =    -16.59920  eV     1   --> A              
     e( 43 - 43) =    -16.58743  eV     1   --> A              
     e( 44 - 44) =    -16.51186  eV     1   --> A              
     e( 45 - 45) =    -16.51071  eV     1   --> A              
     e( 46 - 46) =    -16.49994  eV     1   --> A              
     e( 47 - 47) =    -15.85972  eV     1   --> A              
     e( 48 - 48) =    -15.82390  eV     1   --> A              
     e( 49 - 49) =    -15.82225  eV     1   --> A              
     e( 50 - 50) =    -15.78620  eV     1   --> A              
     e( 51 - 51) =    -15.37917  eV     1   --> A              
     e( 52 - 52) =    -15.37138  eV     1   --> A              
     e( 53 - 53) =    -15.36370  eV     1   --> A              
     e( 54 - 54) =    -15.21479  eV     1   --> A              
     e( 55 - 55) =    -15.20852  eV     1   --> A              
     e( 56 - 56) =    -15.09617  eV     1   --> A              
     e( 57 - 57) =    -15.09299  eV     1   --> A              
     e( 58 - 58) =    -15.08627  eV     1   --> A              
     e( 59 - 59) =    -14.74019  eV     1   --> A              
     e( 60 - 60) =    -14.73703  eV     1   --> A              
     e( 61 - 61) =    -14.73411  eV     1   --> A              
     e( 62 - 62) =    -14.61793  eV     1   --> A              
     e( 63 - 63) =    -14.61585  eV     1   --> A              
     e( 64 - 64) =    -12.61516  eV     1   --> A              
     e( 65 - 65) =    -12.23620  eV     1   --> A              
     e( 66 - 66) =    -11.97026  eV     1   --> A              
     e( 67 - 67) =    -11.95927  eV     1   --> A              
     e( 68 - 68) =    -11.94436  eV     1   --> A              
     e( 69 - 69) =    -10.91093  eV     1   --> A              
     e( 70 - 70) =    -10.81100  eV     1   --> A              
     e( 71 - 71) =    -10.28956  eV     1   --> A              
     e( 72 - 72) =    -10.28622  eV     1   --> A              
     e( 73 - 73) =    -10.27138  eV     1   --> A              
     e( 74 - 74) =     -9.33776  eV     1   --> A              
     e( 75 - 75) =     -9.18782  eV     1   --> A              
     e( 76 - 76) =     -8.92413  eV     1   --> A              
     e( 77 - 77) =     -8.91984  eV     1   --> A              
     e( 78 - 78) =     -8.91062  eV     1   --> A              
     e( 79 - 79) =     -8.57460  eV     1   --> A              
     e( 80 - 80) =     -8.23604  eV     1   --> A              
     e( 81 - 81) =     -8.22046  eV     1   --> A              
     e( 82 - 82) =     -8.21625  eV     1   --> A              
     e( 83 - 83) =     -8.15068  eV     1   --> A              
     e( 84 - 84) =     -8.13895  eV     1   --> A              
     e( 85 - 85) =     -7.92371  eV     1   --> A              
     e( 86 - 86) =     -7.91037  eV     1   --> A              
     e( 87 - 87) =     -7.90415  eV     1   --> A              
     e( 88 - 88) =     -7.69115  eV     1   --> A              
     e( 89 - 89) =     -7.62870  eV     1   --> A              
     e( 90 - 90) =     -7.62496  eV     1   --> A              
     e( 91 - 91) =     -7.55335  eV     1   --> A              
     e( 92 - 92) =     -7.54316  eV     1   --> A              
     e( 93 - 93) =     -7.47693  eV     1   --> A              
     e( 94 - 94) =     -7.23970  eV     1   --> A              
     e( 95 - 95) =     -6.99750  eV     1   --> A              
     e( 96 - 96) =     -6.99367  eV     1   --> A              
     e( 97 - 97) =     -6.98070  eV     1   --> A              
     e( 98 - 98) =     -6.87908  eV     1   --> A              
     e( 99 - 99) =     -6.86384  eV     1   --> A              
     e(100 -100) =     -6.84966  eV     1   --> A              
     e(101 -101) =     -6.79848  eV     1   --> A              
     e(102 -102) =     -6.52040  eV     1   --> A              
     e(103 -103) =     -6.04025  eV     1   --> A              
     e(104 -104) =     -6.01509  eV     1   --> A              
     e(105 -105) =     -6.00909  eV     1   --> A              
     e(106 -106) =     -5.76643  eV     1   --> A              
     e(107 -107) =     -5.74685  eV     1   --> A              
     e(108 -108) =     -5.71061  eV     1   --> A              
     e(109 -109) =     -5.70779  eV     1   --> A              
     e(110 -110) =     -5.46406  eV     1   --> A              
     e(111 -111) =     -5.45398  eV     1   --> A              
     e(112 -112) =     -5.43626  eV     1   --> A              
     e(113 -113) =     -5.36002  eV     1   --> A              
     e(114 -114) =     -5.35204  eV     1   --> A              
     e(115 -115) =     -5.34022  eV     1   --> A              
     e(116 -116) =     -5.23609  eV     1   --> A              
     e(117 -117) =     -5.22665  eV     1   --> A              
     e(118 -118) =     -5.21459  eV     1   --> A              
     e(119 -119) =     -5.02825  eV     1   --> A              
     e(120 -120) =     -5.01684  eV     1   --> A              
     e(121 -121) =     -5.01483  eV     1   --> A              
     e(122 -122) =     -4.95256  eV     1   --> A              
     e(123 -123) =     -4.94136  eV     1   --> A              
     e(124 -124) =     -4.74376  eV     1   --> A              
     e(125 -125) =     -4.72758  eV     1   --> A              
     e(126 -126) =     -4.69280  eV     1   --> A              
     e(127 -127) =     -4.57663  eV     1   --> A              
     e(128 -128) =     -4.56849  eV     1   --> A              
     e(129 -129) =     -4.54442  eV     1   --> A              
     e(130 -130) =     -4.38908  eV     1   --> A              
     e(131 -131) =     -4.35589  eV     1   --> A              
     e(132 -132) =     -4.33883  eV     1   --> A              
     e(133 -133) =     -4.31628  eV     1   --> A              
     e(134 -134) =     -4.31139  eV     1   --> A              
     e(135 -135) =     -4.29606  eV     1   --> A              
     e(136 -136) =     -4.27737  eV     1   --> A              
     e(137 -137) =     -4.22610  eV     1   --> A              
     e(138 -138) =     -4.18095  eV     1   --> A              
     e(139 -139) =     -4.09961  eV     1   --> A              
     e(140 -140) =     -3.89555  eV     1   --> A              
     e(141 -141) =     -3.85426  eV     1   --> A              
     e(142 -142) =     -3.84508  eV     1   --> A              
     e(143 -143) =     -3.77642  eV     1   --> A              
     e(144 -144) =     -3.70494  eV     1   --> A              
     e(145 -145) =     -3.63321  eV     1   --> A              
     e(146 -146) =     -3.62294  eV     1   --> A              
     e(147 -147) =     -3.50548  eV     1   --> A              
     e(148 -148) =     -3.49944  eV     1   --> A              
     e(149 -149) =     -3.49563  eV     1   --> A              
     e(150 -150) =     -3.44925  eV     1   --> A              
     e(151 -151) =     -3.43447  eV     1   --> A              
     e(152 -152) =     -3.42443  eV     1   --> A              
     e(153 -153) =     -3.35993  eV     1   --> A              
     e(154 -154) =     -3.35201  eV     1   --> A              
     e(155 -155) =     -3.32901  eV     1   --> A              
     e(156 -156) =     -3.28407  eV     1   --> A              
     e(157 -157) =     -3.28015  eV     1   --> A              
     e(158 -158) =     -3.14727  eV     1   --> A              
     e(159 -159) =     -3.14363  eV     1   --> A              
     e(160 -160) =     -2.99860  eV     1   --> A              
     e(161 -161) =     -2.93197  eV     1   --> A              
     e(162 -162) =     -2.91666  eV     1   --> A              
     e(163 -163) =     -2.91336  eV     1   --> A              
     e(164 -164) =     -2.80375  eV     1   --> A              
     e(165 -165) =     -2.79884  eV     1   --> A              
     e(166 -166) =     -2.74378  eV     1   --> A              
     e(167 -167) =     -2.56321  eV     1   --> A              
     e(168 -168) =     -2.55712  eV     1   --> A              
     e(169 -169) =     -0.83975  eV     1   --> A              
     e(170 -170) =     -0.39255  eV     1   --> A              
     e(171 -171) =     -0.37883  eV     1   --> A              
     e(172 -172) =     -0.35527  eV     1   --> A              
     e(173 -173) =      0.12311  eV     1   --> A              
     e(174 -174) =      0.43794  eV     1   --> A              
     e(175 -175) =      0.45860  eV     1   --> A              
     e(176 -176) =      0.47448  eV     1   --> A              
     e(177 -177) =      0.48736  eV     1   --> A              
     e(178 -178) =      0.50069  eV     1   --> A              
     e(179 -179) =      0.53587  eV     1   --> A              
     e(180 -180) =      0.75564  eV     1   --> A              
     e(181 -181) =      0.77122  eV     1   --> A              
     e(182 -182) =      0.77691  eV     1   --> A              
     e(183 -183) =      0.94694  eV     1   --> A              
     e(184 -184) =      0.95388  eV     1   --> A              
     e(185 -185) =      0.97745  eV     1   --> A              
     e(186 -186) =      0.99155  eV     1   --> A              
     e(187 -187) =      0.99412  eV     1   --> A              
     e(188 -188) =      1.24683  eV     1   --> A              
     e(189 -189) =      1.40929  eV     1   --> A              
     e(190 -190) =      1.42631  eV     1   --> A              
     e(191 -191) =      1.43612  eV     1   --> A              
     e(192 -192) =      1.52574  eV     1   --> A              
     e(193 -193) =      1.59321  eV     1   --> A              
     e(194 -194) =      1.74272  eV     1   --> A              
     e(195 -195) =      1.75068  eV     1   --> A              
     e(196 -196) =      1.81868  eV     1   --> A              
     e(197 -197) =      1.87223  eV     1   --> A              
     e(198 -198) =      2.18422  eV     1   --> A              
     e(199 -199) =      2.18863  eV     1   --> A              
     e(200 -200) =      2.31143  eV     1   --> A              
     e(201 -201) =      2.31836  eV     1   --> A              
     e(202 -202) =      2.37030  eV     1   --> A              
     e(203 -203) =      2.55410  eV     1   --> A              
     e(204 -204) =      2.56709  eV     1   --> A              
     e(205 -205) =      2.58102  eV     1   --> A              
     e(206 -206) =      2.68772  eV     1   --> A              
     e(207 -207) =      2.74177  eV     1   --> A              
     e(208 -208) =      2.82447  eV     1   --> A              
     e(209 -209) =      2.93804  eV     1   --> A              
     e(210 -210) =      2.96800  eV     1   --> A              
     e(211 -211) =      2.98541  eV     1   --> A              
     e(212 -212) =      2.99054  eV     1   --> A              
     e(213 -213) =      3.00961  eV     1   --> A              
     e(214 -214) =      3.11703  eV     1   --> A              
     e(215 -215) =      3.14552  eV     1   --> A              
     e(216 -216) =      3.15833  eV     1   --> A              
     e(217 -217) =      3.23116  eV     1   --> A              
     e(218 -218) =      3.31099  eV     1   --> A              
     e(219 -219) =      3.38062  eV     1   --> A              
     e(220 -220) =      3.39345  eV     1   --> A              
     e(221 -221) =      3.43459  eV     1   --> A              
     e(222 -222) =      3.47490  eV     1   --> A              
     e(223 -223) =      3.50007  eV     1   --> A              
     e(224 -224) =      3.53498  eV     1   --> A              
     e(225 -225) =      3.60711  eV     1   --> A              
     e(226 -226) =      3.71157  eV     1   --> A              
     e(227 -227) =      3.85931  eV     1   --> A              
     e(228 -228) =      3.94683  eV     1   --> A              
     e(229 -229) =      3.97226  eV     1   --> A              
     e(230 -230) =      3.99083  eV     1   --> A              
     e(231 -231) =      4.05396  eV     1   --> A              
     e(232 -232) =      4.07078  eV     1   --> A              
     e(233 -233) =      4.10309  eV     1   --> A              
     e(234 -234) =      4.11626  eV     1   --> A              
     e(235 -235) =      4.17162  eV     1   --> A              
     e(236 -236) =      4.17792  eV     1   --> A              
     e(237 -237) =      4.21441  eV     1   --> A              
     e(238 -238) =      4.25005  eV     1   --> A              
     e(239 -239) =      4.27828  eV     1   --> A              
     e(240 -240) =      4.30261  eV     1   --> A              
     e(241 -241) =      4.33563  eV     1   --> A              
     e(242 -242) =      4.34247  eV     1   --> A              
     e(243 -243) =      4.36440  eV     1   --> A              
     e(244 -244) =      4.37772  eV     1   --> A              
     e(245 -245) =      4.43491  eV     1   --> A              
     e(246 -246) =      4.45626  eV     1   --> A              
     e(247 -247) =      4.46114  eV     1   --> A              
     e(248 -248) =      4.52435  eV     1   --> A              
     e(249 -249) =      4.55982  eV     1   --> A              
     e(250 -250) =      4.63096  eV     1   --> A              

 **************************************************************************

 **************************************************************************

                    xk=(   0.07500,   0.04330,   0.00000  )

     Band symmetry, C_1 (1)     point group:

     e(  1 -  1) =   -113.76307  eV     1   --> A              
     e(  2 -  2) =   -113.75638  eV     1   --> A              
     e(  3 -  3) =   -113.75599  eV     1   --> A              
     e(  4 -  4) =   -113.56650  eV     1   --> A              
     e(  5 -  5) =    -71.23478  eV     1   --> A              
     e(  6 -  6) =    -71.23344  eV     1   --> A              
     e(  7 -  7) =    -71.22761  eV     1   --> A              
     e(  8 -  8) =    -71.22733  eV     1   --> A              
     e(  9 -  9) =    -71.22719  eV     1   --> A              
     e( 10 - 10) =    -71.22694  eV     1   --> A              
     e( 11 - 11) =    -71.08145  eV     1   --> A              
     e( 12 - 12) =    -71.07909  eV     1   --> A              
     e( 13 - 13) =    -71.06591  eV     1   --> A              
     e( 14 - 14) =    -71.05949  eV     1   --> A              
     e( 15 - 15) =    -71.05897  eV     1   --> A              
     e( 16 - 16) =    -70.78645  eV     1   --> A              
     e( 17 - 17) =    -23.42917  eV     1   --> A              
     e( 18 - 18) =    -20.20080  eV     1   --> A              
     e( 19 - 19) =    -18.31263  eV     1   --> A              
     e( 20 - 20) =    -18.15624  eV     1   --> A              
     e( 21 - 21) =    -18.15234  eV     1   --> A              
     e( 22 - 22) =    -18.13834  eV     1   --> A              
     e( 23 - 23) =    -17.34735  eV     1   --> A              
     e( 24 - 24) =    -17.34257  eV     1   --> A              
     e( 25 - 25) =    -17.33373  eV     1   --> A              
     e( 26 - 26) =    -17.30198  eV     1   --> A              
     e( 27 - 27) =    -16.91113  eV     1   --> A              
     e( 28 - 28) =    -16.90757  eV     1   --> A              
     e( 29 - 29) =    -16.87021  eV     1   --> A              
     e( 30 - 30) =    -16.86719  eV     1   --> A              
     e( 31 - 31) =    -16.85931  eV     1   --> A              
     e( 32 - 32) =    -16.65597  eV     1   --> A              
     e( 33 - 33) =    -16.65346  eV     1   --> A              
     e( 34 - 34) =    -16.65120  eV     1   --> A              
     e( 35 - 35) =    -16.62615  eV     1   --> A              
     e( 36 - 36) =    -16.62355  eV     1   --> A              
     e( 37 - 37) =    -16.62141  eV     1   --> A              
     e( 38 - 38) =    -16.61510  eV     1   --> A              
     e( 39 - 39) =    -16.61418  eV     1   --> A              
     e( 40 - 40) =    -16.60499  eV     1   --> A              
     e( 41 - 41) =    -16.60412  eV     1   --> A              
     e( 42 - 42) =    -16.59930  eV     1   --> A              
     e( 43 - 43) =    -16.58733  eV     1   --> A              
     e( 44 - 44) =    -16.51315  eV     1   --> A              
     e( 45 - 45) =    -16.51055  eV     1   --> A              
     e( 46 - 46) =    -16.49989  eV     1   --> A              
     e( 47 - 47) =    -15.85733  eV     1   --> A              
     e( 48 - 48) =    -15.82146  eV     1   --> A              
     e( 49 - 49) =    -15.81970  eV     1   --> A              
     e( 50 - 50) =    -15.78499  eV     1   --> A              
     e( 51 - 51) =    -15.38093  eV     1   --> A              
     e( 52 - 52) =    -15.37404  eV     1   --> A              
     e( 53 - 53) =    -15.36414  eV     1   --> A              
     e( 54 - 54) =    -15.21854  eV     1   --> A              
     e( 55 - 55) =    -15.21088  eV     1   --> A              
     e( 56 - 56) =    -15.09493  eV     1   --> A              
     e( 57 - 57) =    -15.09000  eV     1   --> A              
     e( 58 - 58) =    -15.08363  eV     1   --> A              
     e( 59 - 59) =    -14.74093  eV     1   --> A              
     e( 60 - 60) =    -14.73682  eV     1   --> A              
     e( 61 - 61) =    -14.73444  eV     1   --> A              
     e( 62 - 62) =    -14.62153  eV     1   --> A              
     e( 63 - 63) =    -14.61687  eV     1   --> A              
     e( 64 - 64) =    -12.60932  eV     1   --> A              
     e( 65 - 65) =    -12.23619  eV     1   --> A              
     e( 66 - 66) =    -11.97221  eV     1   --> A              
     e( 67 - 67) =    -11.96000  eV     1   --> A              
     e( 68 - 68) =    -11.94461  eV     1   --> A              
     e( 69 - 69) =    -10.91059  eV     1   --> A              
     e( 70 - 70) =    -10.80752  eV     1   --> A              
     e( 71 - 71) =    -10.29185  eV     1   --> A              
     e( 72 - 72) =    -10.28589  eV     1   --> A              
     e( 73 - 73) =    -10.27057  eV     1   --> A              
     e( 74 - 74) =     -9.33778  eV     1   --> A              
     e( 75 - 75) =     -9.18590  eV     1   --> A              
     e( 76 - 76) =     -8.92254  eV     1   --> A              
     e( 77 - 77) =     -8.91993  eV     1   --> A              
     e( 78 - 78) =     -8.90841  eV     1   --> A              
     e( 79 - 79) =     -8.57479  eV     1   --> A              
     e( 80 - 80) =     -8.23953  eV     1   --> A              
     e( 81 - 81) =     -8.22507  eV     1   --> A              
     e( 82 - 82) =     -8.21750  eV     1   --> A              
     e( 83 - 83) =     -8.15269  eV     1   --> A              
     e( 84 - 84) =     -8.13857  eV     1   --> A              
     e( 85 - 85) =     -7.92614  eV     1   --> A              
     e( 86 - 86) =     -7.91245  eV     1   --> A              
     e( 87 - 87) =     -7.90786  eV     1   --> A              
     e( 88 - 88) =     -7.69438  eV     1   --> A              
     e( 89 - 89) =     -7.63419  eV     1   --> A              
     e( 90 - 90) =     -7.62908  eV     1   --> A              
     e( 91 - 91) =     -7.56072  eV     1   --> A              
     e( 92 - 92) =     -7.53830  eV     1   --> A              
     e( 93 - 93) =     -7.47804  eV     1   --> A              
     e( 94 - 94) =     -7.23956  eV     1   --> A              
     e( 95 - 95) =     -7.00520  eV     1   --> A              
     e( 96 - 96) =     -6.99967  eV     1   --> A              
     e( 97 - 97) =     -6.98136  eV     1   --> A              
     e( 98 - 98) =     -6.86709  eV     1   --> A              
     e( 99 - 99) =     -6.85467  eV     1   --> A              
     e(100 -100) =     -6.83918  eV     1   --> A              
     e(101 -101) =     -6.78932  eV     1   --> A              
     e(102 -102) =     -6.51988  eV     1   --> A              
     e(103 -103) =     -6.03687  eV     1   --> A              
     e(104 -104) =     -6.01141  eV     1   --> A              
     e(105 -105) =     -6.00539  eV     1   --> A              
     e(106 -106) =     -5.76687  eV     1   --> A              
     e(107 -107) =     -5.74703  eV     1   --> A              
     e(108 -108) =     -5.70826  eV     1   --> A              
     e(109 -109) =     -5.70489  eV     1   --> A              
     e(110 -110) =     -5.46451  eV     1   --> A              
     e(111 -111) =     -5.45329  eV     1   --> A              
     e(112 -112) =     -5.43499  eV     1   --> A              
     e(113 -113) =     -5.36323  eV     1   --> A              
     e(114 -114) =     -5.35334  eV     1   --> A              
     e(115 -115) =     -5.33662  eV     1   --> A              
     e(116 -116) =     -5.23781  eV     1   --> A              
     e(117 -117) =     -5.22646  eV     1   --> A              
     e(118 -118) =     -5.21425  eV     1   --> A              
     e(119 -119) =     -5.03106  eV     1   --> A              
     e(120 -120) =     -5.01592  eV     1   --> A              
     e(121 -121) =     -5.01365  eV     1   --> A              
     e(122 -122) =     -4.95544  eV     1   --> A              
     e(123 -123) =     -4.94493  eV     1   --> A              
     e(124 -124) =     -4.74565  eV     1   --> A              
     e(125 -125) =     -4.72804  eV     1   --> A              
     e(126 -126) =     -4.69335  eV     1   --> A              
     e(127 -127) =     -4.57912  eV     1   --> A              
     e(128 -128) =     -4.57092  eV     1   --> A              
     e(129 -129) =     -4.54980  eV     1   --> A              
     e(130 -130) =     -4.38912  eV     1   --> A              
     e(131 -131) =     -4.36694  eV     1   --> A              
     e(132 -132) =     -4.33719  eV     1   --> A              
     e(133 -133) =     -4.31397  eV     1   --> A              
     e(134 -134) =     -4.31102  eV     1   --> A              
     e(135 -135) =     -4.28610  eV     1   --> A              
     e(136 -136) =     -4.26944  eV     1   --> A              
     e(137 -137) =     -4.22377  eV     1   --> A              
     e(138 -138) =     -4.17675  eV     1   --> A              
     e(139 -139) =     -4.09469  eV     1   --> A              
     e(140 -140) =     -3.89347  eV     1   --> A              
     e(141 -141) =     -3.85313  eV     1   --> A              
     e(142 -142) =     -3.84279  eV     1   --> A              
     e(143 -143) =     -3.77455  eV     1   --> A              
     e(144 -144) =     -3.70281  eV     1   --> A              
     e(145 -145) =     -3.63207  eV     1   --> A              
     e(146 -146) =     -3.62079  eV     1   --> A              
     e(147 -147) =     -3.50920  eV     1   --> A              
     e(148 -148) =     -3.50018  eV     1   --> A              
     e(149 -149) =     -3.49287  eV     1   --> A              
     e(150 -150) =     -3.44755  eV     1   --> A              
     e(151 -151) =     -3.43584  eV     1   --> A              
     e(152 -152) =     -3.42109  eV     1   --> A              
     e(153 -153) =     -3.36053  eV     1   --> A              
     e(154 -154) =     -3.35226  eV     1   --> A              
     e(155 -155) =     -3.33151  eV     1   --> A              
     e(156 -156) =     -3.28669  eV     1   --> A              
     e(157 -157) =     -3.27861  eV     1   --> A              
     e(158 -158) =     -3.15938  eV     1   --> A              
     e(159 -159) =     -3.14759  eV     1   --> A              
     e(160 -160) =     -2.99958  eV     1   --> A              
     e(161 -161) =     -2.93565  eV     1   --> A              
     e(162 -162) =     -2.91728  eV     1   --> A              
     e(163 -163) =     -2.91279  eV     1   --> A              
     e(164 -164) =     -2.80680  eV     1   --> A              
     e(165 -165) =     -2.80254  eV     1   --> A              
     e(166 -166) =     -2.74447  eV     1   --> A              
     e(167 -167) =     -2.57664  eV     1   --> A              
     e(168 -168) =     -2.56246  eV     1   --> A              
     e(169 -169) =     -0.82475  eV     1   --> A              
     e(170 -170) =     -0.39405  eV     1   --> A              
     e(171 -171) =     -0.37836  eV     1   --> A              
     e(172 -172) =     -0.35323  eV     1   --> A              
     e(173 -173) =      0.13316  eV     1   --> A              
     e(174 -174) =      0.42950  eV     1   --> A              
     e(175 -175) =      0.45165  eV     1   --> A              
     e(176 -176) =      0.47550  eV     1   --> A              
     e(177 -177) =      0.49468  eV     1   --> A              
     e(178 -178) =      0.51226  eV     1   --> A              
     e(179 -179) =      0.54219  eV     1   --> A              
     e(180 -180) =      0.75461  eV     1   --> A              
     e(181 -181) =      0.77217  eV     1   --> A              
     e(182 -182) =      0.77964  eV     1   --> A              
     e(183 -183) =      0.94499  eV     1   --> A              
     e(184 -184) =      0.95422  eV     1   --> A              
     e(185 -185) =      0.97277  eV     1   --> A              
     e(186 -186) =      0.98941  eV     1   --> A              
     e(187 -187) =      0.99249  eV     1   --> A              
     e(188 -188) =      1.24727  eV     1   --> A              
     e(189 -189) =      1.40445  eV     1   --> A              
     e(190 -190) =      1.42186  eV     1   --> A              
     e(191 -191) =      1.43491  eV     1   --> A              
     e(192 -192) =      1.52486  eV     1   --> A              
     e(193 -193) =      1.59288  eV     1   --> A              
     e(194 -194) =      1.74156  eV     1   --> A              
     e(195 -195) =      1.75302  eV     1   --> A              
     e(196 -196) =      1.81790  eV     1   --> A              
     e(197 -197) =      1.87243  eV     1   --> A              
     e(198 -198) =      2.18199  eV     1   --> A              
     e(199 -199) =      2.19314  eV     1   --> A              
     e(200 -200) =      2.29757  eV     1   --> A              
     e(201 -201) =      2.31030  eV     1   --> A              
     e(202 -202) =      2.37114  eV     1   --> A              
     e(203 -203) =      2.55674  eV     1   --> A              
     e(204 -204) =      2.57284  eV     1   --> A              
     e(205 -205) =      2.58732  eV     1   --> A              
     e(206 -206) =      2.68984  eV     1   --> A              
     e(207 -207) =      2.73447  eV     1   --> A              
     e(208 -208) =      2.82282  eV     1   --> A              
     e(209 -209) =      2.93405  eV     1   --> A              
     e(210 -210) =      2.96200  eV     1   --> A              
     e(211 -211) =      2.98235  eV     1   --> A              
     e(212 -212) =      2.99260  eV     1   --> A              
     e(213 -213) =      3.01082  eV     1   --> A              
     e(214 -214) =      3.11384  eV     1   --> A              
     e(215 -215) =      3.14141  eV     1   --> A              
     e(216 -216) =      3.15857  eV     1   --> A              
     e(217 -217) =      3.23621  eV     1   --> A              
     e(218 -218) =      3.31199  eV     1   --> A              
     e(219 -219) =      3.38130  eV     1   --> A              
     e(220 -220) =      3.39410  eV     1   --> A              
     e(221 -221) =      3.44245  eV     1   --> A              
     e(222 -222) =      3.46875  eV     1   --> A              
     e(223 -223) =      3.49994  eV     1   --> A              
     e(224 -224) =      3.54202  eV     1   --> A              
     e(225 -225) =      3.63467  eV     1   --> A              
     e(226 -226) =      3.72144  eV     1   --> A              
     e(227 -227) =      3.84584  eV     1   --> A              
     e(228 -228) =      3.93413  eV     1   --> A              
     e(229 -229) =      3.95066  eV     1   --> A              
     e(230 -230) =      3.98871  eV     1   --> A              
     e(231 -231) =      4.04652  eV     1   --> A              
     e(232 -232) =      4.06889  eV     1   --> A              
     e(233 -233) =      4.09280  eV     1   --> A              
     e(234 -234) =      4.12554  eV     1   --> A              
     e(235 -235) =      4.17164  eV     1   --> A              
     e(236 -236) =      4.18955  eV     1   --> A              
     e(237 -237) =      4.21266  eV     1   --> A              
     e(238 -238) =      4.25293  eV     1   --> A              
     e(239 -239) =      4.27816  eV     1   --> A              
     e(240 -240) =      4.30470  eV     1   --> A              
     e(241 -241) =      4.34439  eV     1   --> A              
     e(242 -242) =      4.34964  eV     1   --> A              
     e(243 -243) =      4.36622  eV     1   --> A              
     e(244 -244) =      4.39879  eV     1   --> A              
     e(245 -245) =      4.44330  eV     1   --> A              
     e(246 -246) =      4.46218  eV     1   --> A              
     e(247 -247) =      4.47063  eV     1   --> A              
     e(248 -248) =      4.51902  eV     1   --> A              
     e(249 -249) =      4.54520  eV     1   --> A              
     e(250 -250) =      4.63689  eV     1   --> A              

 **************************************************************************

 **************************************************************************

                    xk=(   0.10000,   0.05774,   0.00000  )

     Band symmetry, C_1 (1)     point group:

     e(  1 -  1) =   -113.76307  eV     1   --> A              
     e(  2 -  2) =   -113.75639  eV     1   --> A              
     e(  3 -  3) =   -113.75599  eV     1   --> A              
     e(  4 -  4) =   -113.56650  eV     1   --> A              
     e(  5 -  5) =    -71.23478  eV     1   --> A              
     e(  6 -  6) =    -71.23344  eV     1   --> A              
     e(  7 -  7) =    -71.22761  eV     1   --> A              
     e(  8 -  8) =    -71.22733  eV     1   --> A              
     e(  9 -  9) =    -71.22719  eV     1   --> A              
     e( 10 - 10) =    -71.22694  eV     1   --> A              
     e( 11 - 11) =    -71.08145  eV     1   --> A              
     e( 12 - 12) =    -71.07909  eV     1   --> A              
     e( 13 - 13) =    -71.06591  eV     1   --> A              
     e( 14 - 14) =    -71.05949  eV     1   --> A              
     e( 15 - 15) =    -71.05898  eV     1   --> A              
     e( 16 - 16) =    -70.78645  eV     1   --> A              
     e( 17 - 17) =    -23.42917  eV     1   --> A              
     e( 18 - 18) =    -20.20080  eV     1   --> A              
     e( 19 - 19) =    -18.31101  eV     1   --> A              
     e( 20 - 20) =    -18.15709  eV     1   --> A              
     e( 21 - 21) =    -18.15307  eV     1   --> A              
     e( 22 - 22) =    -18.13881  eV     1   --> A              
     e( 23 - 23) =    -17.34708  eV     1   --> A              
     e( 24 - 24) =    -17.34213  eV     1   --> A              
     e( 25 - 25) =    -17.33344  eV     1   --> A              
     e( 26 - 26) =    -17.30280  eV     1   --> A              
     e( 27 - 27) =    -16.91093  eV     1   --> A              
     e( 28 - 28) =    -16.90437  eV     1   --> A              
     e( 29 - 29) =    -16.87173  eV     1   --> A              
     e( 30 - 30) =    -16.86871  eV     1   --> A              
     e( 31 - 31) =    -16.86080  eV     1   --> A              
     e( 32 - 32) =    -16.65748  eV     1   --> A              
     e( 33 - 33) =    -16.65255  eV     1   --> A              
     e( 34 - 34) =    -16.65039  eV     1   --> A              
     e( 35 - 35) =    -16.62635  eV     1   --> A              
     e( 36 - 36) =    -16.62353  eV     1   --> A              
     e( 37 - 37) =    -16.62114  eV     1   --> A              
     e( 38 - 38) =    -16.61504  eV     1   --> A              
     e( 39 - 39) =    -16.61410  eV     1   --> A              
     e( 40 - 40) =    -16.60516  eV     1   --> A              
     e( 41 - 41) =    -16.60420  eV     1   --> A              
     e( 42 - 42) =    -16.59944  eV     1   --> A              
     e( 43 - 43) =    -16.58718  eV     1   --> A              
     e( 44 - 44) =    -16.51536  eV     1   --> A              
     e( 45 - 45) =    -16.51006  eV     1   --> A              
     e( 46 - 46) =    -16.49967  eV     1   --> A              
     e( 47 - 47) =    -15.85421  eV     1   --> A              
     e( 48 - 48) =    -15.81908  eV     1   --> A              
     e( 49 - 49) =    -15.81523  eV     1   --> A              
     e( 50 - 50) =    -15.78306  eV     1   --> A              
     e( 51 - 51) =    -15.38391  eV     1   --> A              
     e( 52 - 52) =    -15.37759  eV     1   --> A              
     e( 53 - 53) =    -15.36425  eV     1   --> A              
     e( 54 - 54) =    -15.22448  eV     1   --> A              
     e( 55 - 55) =    -15.21341  eV     1   --> A              
     e( 56 - 56) =    -15.09329  eV     1   --> A              
     e( 57 - 57) =    -15.08693  eV     1   --> A              
     e( 58 - 58) =    -15.07889  eV     1   --> A              
     e( 59 - 59) =    -14.74202  eV     1   --> A              
     e( 60 - 60) =    -14.73732  eV     1   --> A              
     e( 61 - 61) =    -14.73406  eV     1   --> A              
     e( 62 - 62) =    -14.62656  eV     1   --> A              
     e( 63 - 63) =    -14.61824  eV     1   --> A              
     e( 64 - 64) =    -12.60123  eV     1   --> A              
     e( 65 - 65) =    -12.23618  eV     1   --> A              
     e( 66 - 66) =    -11.97619  eV     1   --> A              
     e( 67 - 67) =    -11.96031  eV     1   --> A              
     e( 68 - 68) =    -11.94447  eV     1   --> A              
     e( 69 - 69) =    -10.91017  eV     1   --> A              
     e( 70 - 70) =    -10.80263  eV     1   --> A              
     e( 71 - 71) =    -10.29702  eV     1   --> A              
     e( 72 - 72) =    -10.28400  eV     1   --> A              
     e( 73 - 73) =    -10.26896  eV     1   --> A              
     e( 74 - 74) =     -9.33782  eV     1   --> A              
     e( 75 - 75) =     -9.18321  eV     1   --> A              
     e( 76 - 76) =     -8.92379  eV     1   --> A              
     e( 77 - 77) =     -8.91699  eV     1   --> A              
     e( 78 - 78) =     -8.90500  eV     1   --> A              
     e( 79 - 79) =     -8.57505  eV     1   --> A              
     e( 80 - 80) =     -8.24481  eV     1   --> A              
     e( 81 - 81) =     -8.23138  eV     1   --> A              
     e( 82 - 82) =     -8.21864  eV     1   --> A              
     e( 83 - 83) =     -8.15780  eV     1   --> A              
     e( 84 - 84) =     -8.13557  eV     1   --> A              
     e( 85 - 85) =     -7.93039  eV     1   --> A              
     e( 86 - 86) =     -7.91581  eV     1   --> A              
     e( 87 - 87) =     -7.91124  eV     1   --> A              
     e( 88 - 88) =     -7.69890  eV     1   --> A              
     e( 89 - 89) =     -7.64191  eV     1   --> A              
     e( 90 - 90) =     -7.63466  eV     1   --> A              
     e( 91 - 91) =     -7.57043  eV     1   --> A              
     e( 92 - 92) =     -7.53151  eV     1   --> A              
     e( 93 - 93) =     -7.47961  eV     1   --> A              
     e( 94 - 94) =     -7.23940  eV     1   --> A              
     e( 95 - 95) =     -7.01427  eV     1   --> A              
     e( 96 - 96) =     -7.00760  eV     1   --> A              
     e( 97 - 97) =     -6.98146  eV     1   --> A              
     e( 98 - 98) =     -6.85204  eV     1   --> A              
     e( 99 - 99) =     -6.84231  eV     1   --> A              
     e(100 -100) =     -6.82598  eV     1   --> A              
     e(101 -101) =     -6.77737  eV     1   --> A              
     e(102 -102) =     -6.51913  eV     1   --> A              
     e(103 -103) =     -6.03212  eV     1   --> A              
     e(104 -104) =     -6.00641  eV     1   --> A              
     e(105 -105) =     -6.00016  eV     1   --> A              
     e(106 -106) =     -5.76770  eV     1   --> A              
     e(107 -107) =     -5.74710  eV     1   --> A              
     e(108 -108) =     -5.70634  eV     1   --> A              
     e(109 -109) =     -5.69965  eV     1   --> A              
     e(110 -110) =     -5.46499  eV     1   --> A              
     e(111 -111) =     -5.45245  eV     1   --> A              
     e(112 -112) =     -5.43319  eV     1   --> A              
     e(113 -113) =     -5.36732  eV     1   --> A              
     e(114 -114) =     -5.35471  eV     1   --> A              
     e(115 -115) =     -5.33244  eV     1   --> A              
     e(116 -116) =     -5.23988  eV     1   --> A              
     e(117 -117) =     -5.22653  eV     1   --> A              
     e(118 -118) =     -5.21384  eV     1   --> A              
     e(119 -119) =     -5.03421  eV     1   --> A              
     e(120 -120) =     -5.01523  eV     1   --> A              
     e(121 -121) =     -5.01217  eV     1   --> A              
     e(122 -122) =     -4.95989  eV     1   --> A              
     e(123 -123) =     -4.94903  eV     1   --> A              
     e(124 -124) =     -4.74845  eV     1   --> A              
     e(125 -125) =     -4.72911  eV     1   --> A              
     e(126 -126) =     -4.69432  eV     1   --> A              
     e(127 -127) =     -4.58240  eV     1   --> A              
     e(128 -128) =     -4.57393  eV     1   --> A              
     e(129 -129) =     -4.55623  eV     1   --> A              
     e(130 -130) =     -4.39021  eV     1   --> A              
     e(131 -131) =     -4.37656  eV     1   --> A              
     e(132 -132) =     -4.33473  eV     1   --> A              
     e(133 -133) =     -4.31416  eV     1   --> A              
     e(134 -134) =     -4.30708  eV     1   --> A              
     e(135 -135) =     -4.27791  eV     1   --> A              
     e(136 -136) =     -4.25840  eV     1   --> A              
     e(137 -137) =     -4.22040  eV     1   --> A              
     e(138 -138) =     -4.17117  eV     1   --> A              
     e(139 -139) =     -4.08820  eV     1   --> A              
     e(140 -140) =     -3.89069  eV     1   --> A              
     e(141 -141) =     -3.85170  eV     1   --> A              
     e(142 -142) =     -3.83988  eV     1   --> A              
     e(143 -143) =     -3.77197  eV     1   --> A              
     e(144 -144) =     -3.69983  eV     1   --> A              
     e(145 -145) =     -3.63051  eV     1   --> A              
     e(146 -146) =     -3.61784  eV     1   --> A              
     e(147 -147) =     -3.51425  eV     1   --> A              
     e(148 -148) =     -3.50109  eV     1   --> A              
     e(149 -149) =     -3.48944  eV     1   --> A              
     e(150 -150) =     -3.44600  eV     1   --> A              
     e(151 -151) =     -3.43666  eV     1   --> A              
     e(152 -152) =     -3.41759  eV     1   --> A              
     e(153 -153) =     -3.36208  eV     1   --> A              
     e(154 -154) =     -3.35269  eV     1   --> A              
     e(155 -155) =     -3.33422  eV     1   --> A              
     e(156 -156) =     -3.28899  eV     1   --> A              
     e(157 -157) =     -3.27658  eV     1   --> A              
     e(158 -158) =     -3.17526  eV     1   --> A              
     e(159 -159) =     -3.15305  eV     1   --> A              
     e(160 -160) =     -3.00113  eV     1   --> A              
     e(161 -161) =     -2.93999  eV     1   --> A              
     e(162 -162) =     -2.91913  eV     1   --> A              
     e(163 -163) =     -2.91187  eV     1   --> A              
     e(164 -164) =     -2.81652  eV     1   --> A              
     e(165 -165) =     -2.80212  eV     1   --> A              
     e(166 -166) =     -2.74521  eV     1   --> A              
     e(167 -167) =     -2.59549  eV     1   --> A              
     e(168 -168) =     -2.56898  eV     1   --> A              
     e(169 -169) =     -0.80456  eV     1   --> A              
     e(170 -170) =     -0.39650  eV     1   --> A              
     e(171 -171) =     -0.37889  eV     1   --> A              
     e(172 -172) =     -0.34919  eV     1   --> A              
     e(173 -173) =      0.14667  eV     1   --> A              
     e(174 -174) =      0.41850  eV     1   --> A              
     e(175 -175) =      0.44227  eV     1   --> A              
     e(176 -176) =      0.47775  eV     1   --> A              
     e(177 -177) =      0.50509  eV     1   --> A              
     e(178 -178) =      0.52663  eV     1   --> A              
     e(179 -179) =      0.55010  eV     1   --> A              
     e(180 -180) =      0.75273  eV     1   --> A              
     e(181 -181) =      0.77144  eV     1   --> A              
     e(182 -182) =      0.78574  eV     1   --> A              
     e(183 -183) =      0.94188  eV     1   --> A              
     e(184 -184) =      0.95435  eV     1   --> A              
[...]
     e(199 -199) =      2.11149  eV     1   --> A              
     e(200 -200) =      2.13714  eV     1   --> A              
     e(201 -201) =      2.16315  eV     1   --> A              
     e(202 -202) =      2.30168  eV     1   --> A              
     e(203 -203) =      2.44654  eV     1   --> A              
     e(204 -204) =      2.47091  eV     1   --> A              
     e(205 -205) =      2.48977  eV     1   --> A              
     e(206 -206) =      2.57281  eV     1   --> A              
     e(207 -207) =      2.68307  eV     1   --> A              
     e(208 -208) =      2.75576  eV     1   --> A              
     e(209 -209) =      2.89480  eV     1   --> A              
     e(210 -210) =      3.04996  eV     1   --> A              
     e(211 -211) =      3.06446  eV     1   --> A              
     e(212 -212) =      3.10070  eV     1   --> A              
     e(213 -213) =      3.14330  eV     1   --> A              
     e(214 -214) =      3.20553  eV     1   --> A              
     e(215 -215) =      3.23411  eV     1   --> A              
     e(216 -216) =      3.27177  eV     1   --> A              
     e(217 -217) =      3.27975  eV     1   --> A              
     e(218 -218) =      3.30343  eV     1   --> A              
     e(219 -219) =      3.32283  eV     1   --> A              
     e(220 -220) =      3.34510  eV     1   --> A              
     e(221 -221) =      3.38703  eV     1   --> A              
     e(222 -222) =      3.41141  eV     1   --> A              
     e(223 -223) =      3.45198  eV     1   --> A              
     e(224 -224) =      3.56847  eV     1   --> A              
     e(225 -225) =      3.68495  eV     1   --> A              
     e(226 -226) =      3.69860  eV     1   --> A              
     e(227 -227) =      3.72244  eV     1   --> A              
     e(228 -228) =      3.77961  eV     1   --> A              
     e(229 -229) =      3.81466  eV     1   --> A              
     e(230 -230) =      3.84439  eV     1   --> A              
     e(231 -231) =      3.93764  eV     1   --> A              
     e(232 -232) =      3.98660  eV     1   --> A              
     e(233 -233) =      4.14853  eV     1   --> A              
     e(234 -234) =      4.16194  eV     1   --> A              
     e(235 -235) =      4.17823  eV     1   --> A              
     e(236 -236) =      4.22536  eV     1   --> A              
     e(237 -237) =      4.30934  eV     1   --> A              
     e(238 -238) =      4.35955  eV     1   --> A              
     e(239 -239) =      4.39363  eV     1   --> A              
     e(240 -240) =      4.43319  eV     1   --> A              
     e(241 -241) =      4.47480  eV     1   --> A              
     e(242 -242) =      4.50762  eV     1   --> A              
     e(243 -243) =      4.52250  eV     1   --> A              
     e(244 -244) =      4.56710  eV     1   --> A              
     e(245 -245) =      4.59573  eV     1   --> A              
     e(246 -246) =      4.64689  eV     1   --> A              
     e(247 -247) =      4.69082  eV     1   --> A              
     e(248 -248) =      4.74289  eV     1   --> A              
     e(249 -249) =      4.77004  eV     1   --> A              
     e(250 -250) =      4.84089  eV     1   --> A              

 **************************************************************************

 **************************************************************************

                    xk=(   0.33330,   0.57729,   0.23084  )

     Band symmetry, C_1 (1)     point group:

     e(  1 -  1) =   -113.76307  eV     1   --> A              
     e(  2 -  2) =   -113.75639  eV     1   --> A              
     e(  3 -  3) =   -113.75599  eV     1   --> A              
     e(  4 -  4) =   -113.56650  eV     1   --> A              
     e(  5 -  5) =    -71.23478  eV     1   --> A              
     e(  6 -  6) =    -71.23344  eV     1   --> A              
     e(  7 -  7) =    -71.22761  eV     1   --> A              
     e(  8 -  8) =    -71.22733  eV     1   --> A              
     e(  9 -  9) =    -71.22719  eV     1   --> A              
     e( 10 - 10) =    -71.22694  eV     1   --> A              
     e( 11 - 11) =    -71.08145  eV     1   --> A              
     e( 12 - 12) =    -71.07909  eV     1   --> A              
     e( 13 - 13) =    -71.06592  eV     1   --> A              
     e( 14 - 14) =    -71.05949  eV     1   --> A              
     e( 15 - 15) =    -71.05898  eV     1   --> A              
     e( 16 - 16) =    -70.78645  eV     1   --> A              
     e( 17 - 17) =    -23.42918  eV     1   --> A              
     e( 18 - 18) =    -20.20081  eV     1   --> A              
     e( 19 - 19) =    -18.22193  eV     1   --> A              
     e( 20 - 20) =    -18.21777  eV     1   --> A              
     e( 21 - 21) =    -18.20402  eV     1   --> A              
     e( 22 - 22) =    -18.12694  eV     1   --> A              
     e( 23 - 23) =    -17.33823  eV     1   --> A              
     e( 24 - 24) =    -17.33377  eV     1   --> A              
     e( 25 - 25) =    -17.32612  eV     1   --> A              
     e( 26 - 26) =    -17.31921  eV     1   --> A              
     e( 27 - 27) =    -16.91978  eV     1   --> A              
     e( 28 - 28) =    -16.90538  eV     1   --> A              
     e( 29 - 29) =    -16.89949  eV     1   --> A              
     e( 30 - 30) =    -16.89386  eV     1   --> A              
     e( 31 - 31) =    -16.72799  eV     1   --> A              
     e( 32 - 32) =    -16.72295  eV     1   --> A              
     e( 33 - 33) =    -16.71564  eV     1   --> A              
     e( 34 - 34) =    -16.62658  eV     1   --> A              
     e( 35 - 35) =    -16.62491  eV     1   --> A              
     e( 36 - 36) =    -16.62282  eV     1   --> A              
     e( 37 - 37) =    -16.61503  eV     1   --> A              
     e( 38 - 38) =    -16.61403  eV     1   --> A              
     e( 39 - 39) =    -16.61135  eV     1   --> A              
     e( 40 - 40) =    -16.60970  eV     1   --> A              
     e( 41 - 41) =    -16.60777  eV     1   --> A              
     e( 42 - 42) =    -16.60126  eV     1   --> A              
     e( 43 - 43) =    -16.56836  eV     1   --> A              
     e( 44 - 44) =    -16.56676  eV     1   --> A              
     e( 45 - 45) =    -16.56236  eV     1   --> A              
     e( 46 - 46) =    -16.43646  eV     1   --> A              
     e( 47 - 47) =    -15.81993  eV     1   --> A              
     e( 48 - 48) =    -15.78440  eV     1   --> A              
     e( 49 - 49) =    -15.58199  eV     1   --> A              
     e( 50 - 50) =    -15.57479  eV     1   --> A              
     e( 51 - 51) =    -15.56825  eV     1   --> A              
     e( 52 - 52) =    -15.54476  eV     1   --> A              
     e( 53 - 53) =    -15.36254  eV     1   --> A              
     e( 54 - 54) =    -15.34267  eV     1   --> A              
     e( 55 - 55) =    -15.32941  eV     1   --> A              
     e( 56 - 56) =    -15.08311  eV     1   --> A              
     e( 57 - 57) =    -14.90159  eV     1   --> A              
     e( 58 - 58) =    -14.89893  eV     1   --> A              
     e( 59 - 59) =    -14.89498  eV     1   --> A              
     e( 60 - 60) =    -14.80957  eV     1   --> A              
     e( 61 - 61) =    -14.70178  eV     1   --> A              
     e( 62 - 62) =    -14.69729  eV     1   --> A              
     e( 63 - 63) =    -14.69329  eV     1   --> A              
     e( 64 - 64) =    -12.26421  eV     1   --> A              
     e( 65 - 65) =    -12.18532  eV     1   --> A              
     e( 66 - 66) =    -12.17577  eV     1   --> A              
     e( 67 - 67) =    -12.15342  eV     1   --> A              
     e( 68 - 68) =    -11.84306  eV     1   --> A              
     e( 69 - 69) =    -10.90469  eV     1   --> A              
     e( 70 - 70) =    -10.48815  eV     1   --> A              
     e( 71 - 71) =    -10.48643  eV     1   --> A              
     e( 72 - 72) =    -10.47497  eV     1   --> A              
     e( 73 - 73) =    -10.11427  eV     1   --> A              
     e( 74 - 74) =     -9.34017  eV     1   --> A              
     e( 75 - 75) =     -9.00866  eV     1   --> A              
     e( 76 - 76) =     -8.99860  eV     1   --> A              
     e( 77 - 77) =     -8.99203  eV     1   --> A              
     e( 78 - 78) =     -8.66063  eV     1   --> A              
     e( 79 - 79) =     -8.58544  eV     1   --> A              
     e( 80 - 80) =     -8.39158  eV     1   --> A              
     e( 81 - 81) =     -8.37256  eV     1   --> A              
     e( 82 - 82) =     -8.35000  eV     1   --> A              
     e( 83 - 83) =     -8.15384  eV     1   --> A              
     e( 84 - 84) =     -8.14329  eV     1   --> A              
     e( 85 - 85) =     -7.99934  eV     1   --> A              
     e( 86 - 86) =     -7.91756  eV     1   --> A              
     e( 87 - 87) =     -7.90716  eV     1   --> A              
     e( 88 - 88) =     -7.88598  eV     1   --> A              
     e( 89 - 89) =     -7.82841  eV     1   --> A              
     e( 90 - 90) =     -7.82118  eV     1   --> A              
     e( 91 - 91) =     -7.81116  eV     1   --> A              
     e( 92 - 92) =     -7.52187  eV     1   --> A              
     e( 93 - 93) =     -7.25728  eV     1   --> A              
     e( 94 - 94) =     -7.23634  eV     1   --> A              
     e( 95 - 95) =     -7.12107  eV     1   --> A              
     e( 96 - 96) =     -7.11607  eV     1   --> A              
     e( 97 - 97) =     -7.10673  eV     1   --> A              
     e( 98 - 98) =     -6.66357  eV     1   --> A              
     e( 99 - 99) =     -6.58086  eV     1   --> A              
     e(100 -100) =     -6.54024  eV     1   --> A              
     e(101 -101) =     -6.52607  eV     1   --> A              
     e(102 -102) =     -6.47201  eV     1   --> A              
     e(103 -103) =     -5.82234  eV     1   --> A              
     e(104 -104) =     -5.80902  eV     1   --> A              
     e(105 -105) =     -5.79521  eV     1   --> A              
     e(106 -106) =     -5.77553  eV     1   --> A              
     e(107 -107) =     -5.75855  eV     1   --> A              
     e(108 -108) =     -5.68550  eV     1   --> A              
     e(109 -109) =     -5.65618  eV     1   --> A              
     e(110 -110) =     -5.59526  eV     1   --> A              
     e(111 -111) =     -5.42576  eV     1   --> A              
     e(112 -112) =     -5.38624  eV     1   --> A              
     e(113 -113) =     -5.37265  eV     1   --> A              
     e(114 -114) =     -5.33269  eV     1   --> A              
     e(115 -115) =     -5.31124  eV     1   --> A              
     e(116 -116) =     -5.24672  eV     1   --> A              
     e(117 -117) =     -5.21627  eV     1   --> A              
     e(118 -118) =     -5.18970  eV     1   --> A              
     e(119 -119) =     -5.09952  eV     1   --> A              
     e(120 -120) =     -5.09392  eV     1   --> A              
     e(121 -121) =     -5.03877  eV     1   --> A              
     e(122 -122) =     -4.98101  eV     1   --> A              
     e(123 -123) =     -4.95115  eV     1   --> A              
     e(124 -124) =     -4.90644  eV     1   --> A              
     e(125 -125) =     -4.89196  eV     1   --> A              
     e(126 -126) =     -4.87564  eV     1   --> A              
     e(127 -127) =     -4.57948  eV     1   --> A              
     e(128 -128) =     -4.52401  eV     1   --> A              
     e(129 -129) =     -4.50485  eV     1   --> A              
     e(130 -130) =     -4.49637  eV     1   --> A              
     e(131 -131) =     -4.36246  eV     1   --> A              
     e(132 -132) =     -4.28283  eV     1   --> A              
     e(133 -133) =     -4.26608  eV     1   --> A              
     e(134 -134) =     -4.22447  eV     1   --> A              
     e(135 -135) =     -4.15311  eV     1   --> A              
     e(136 -136) =     -4.13035  eV     1   --> A              
     e(137 -137) =     -4.10535  eV     1   --> A              
     e(138 -138) =     -4.06146  eV     1   --> A              
     e(139 -139) =     -3.97002  eV     1   --> A              
     e(140 -140) =     -3.92272  eV     1   --> A              
     e(141 -141) =     -3.90345  eV     1   --> A              
     e(142 -142) =     -3.87831  eV     1   --> A              
     e(143 -143) =     -3.84106  eV     1   --> A              
     e(144 -144) =     -3.75128  eV     1   --> A              
     e(145 -145) =     -3.59799  eV     1   --> A              
     e(146 -146) =     -3.57921  eV     1   --> A              
     e(147 -147) =     -3.54376  eV     1   --> A              
     e(148 -148) =     -3.51677  eV     1   --> A              
     e(149 -149) =     -3.47735  eV     1   --> A              
     e(150 -150) =     -3.47377  eV     1   --> A              
     e(151 -151) =     -3.42250  eV     1   --> A              
     e(152 -152) =     -3.40098  eV     1   --> A              
     e(153 -153) =     -3.37822  eV     1   --> A              
     e(154 -154) =     -3.33251  eV     1   --> A              
     e(155 -155) =     -3.32661  eV     1   --> A              
     e(156 -156) =     -3.27041  eV     1   --> A              
     e(157 -157) =     -3.24164  eV     1   --> A              
     e(158 -158) =     -3.21230  eV     1   --> A              
     e(159 -159) =     -3.15595  eV     1   --> A              
     e(160 -160) =     -3.12674  eV     1   --> A              
     e(161 -161) =     -3.11319  eV     1   --> A              
     e(162 -162) =     -3.09181  eV     1   --> A              
     e(163 -163) =     -2.92715  eV     1   --> A              
     e(164 -164) =     -2.90402  eV     1   --> A              
     e(165 -165) =     -2.87448  eV     1   --> A              
     e(166 -166) =     -2.86037  eV     1   --> A              
     e(167 -167) =     -2.80782  eV     1   --> A              
     e(168 -168) =     -2.61437  eV     1   --> A              
     e(169 -169) =     -0.52485  eV     1   --> A              
     e(170 -170) =     -0.36823  eV     1   --> A              
     e(171 -171) =     -0.35118  eV     1   --> A              
     e(172 -172) =     -0.33878  eV     1   --> A              
     e(173 -173) =      0.08416  eV     1   --> A              
     e(174 -174) =      0.35244  eV     1   --> A              
     e(175 -175) =      0.37803  eV     1   --> A              
     e(176 -176) =      0.40014  eV     1   --> A              
     e(177 -177) =      0.41344  eV     1   --> A              
     e(178 -178) =      0.71248  eV     1   --> A              
     e(179 -179) =      0.83827  eV     1   --> A              
     e(180 -180) =      0.84980  eV     1   --> A              
     e(181 -181) =      0.86041  eV     1   --> A              
     e(182 -182) =      0.90449  eV     1   --> A              
     e(183 -183) =      0.92644  eV     1   --> A              
     e(184 -184) =      0.93788  eV     1   --> A              
     e(185 -185) =      0.94084  eV     1   --> A              
     e(186 -186) =      0.99885  eV     1   --> A              
     e(187 -187) =      1.12290  eV     1   --> A              
     e(188 -188) =      1.13471  eV     1   --> A              
     e(189 -189) =      1.15642  eV     1   --> A              
     e(190 -190) =      1.41958  eV     1   --> A              
     e(191 -191) =      1.42795  eV     1   --> A              
     e(192 -192) =      1.44172  eV     1   --> A              
     e(193 -193) =      1.56778  eV     1   --> A              
     e(194 -194) =      1.67504  eV     1   --> A              
     e(195 -195) =      1.94522  eV     1   --> A              
     e(196 -196) =      2.08000  eV     1   --> A              
     e(197 -197) =      2.09605  eV     1   --> A              
     e(198 -198) =      2.10736  eV     1   --> A              
     e(199 -199) =      2.11149  eV     1   --> A              
     e(200 -200) =      2.13714  eV     1   --> A              
     e(201 -201) =      2.16315  eV     1   --> A              
     e(202 -202) =      2.30168  eV     1   --> A              
     e(203 -203) =      2.44653  eV     1   --> A              
     e(204 -204) =      2.47091  eV     1   --> A              
     e(205 -205) =      2.48978  eV     1   --> A              
     e(206 -206) =      2.57281  eV     1   --> A              
     e(207 -207) =      2.68308  eV     1   --> A              
     e(208 -208) =      2.75582  eV     1   --> A              
     e(209 -209) =      2.89480  eV     1   --> A              
     e(210 -210) =      3.04991  eV     1   --> A              
     e(211 -211) =      3.06445  eV     1   --> A              
     e(212 -212) =      3.10074  eV     1   --> A              
     e(213 -213) =      3.14314  eV     1   --> A              
     e(214 -214) =      3.20539  eV     1   --> A              
     e(215 -215) =      3.23348  eV     1   --> A              
     e(216 -216) =      3.27184  eV     1   --> A              
     e(217 -217) =      3.28080  eV     1   --> A              
     e(218 -218) =      3.30215  eV     1   --> A              
     e(219 -219) =      3.31858  eV     1   --> A              
     e(220 -220) =      3.34621  eV     1   --> A              
     e(221 -221) =      3.38921  eV     1   --> A              
     e(222 -222) =      3.41585  eV     1   --> A              
     e(223 -223) =      3.45263  eV     1   --> A              
     e(224 -224) =      3.56861  eV     1   --> A              
     e(225 -225) =      3.68202  eV     1   --> A              
     e(226 -226) =      3.69852  eV     1   --> A              
     e(227 -227) =      3.72168  eV     1   --> A              
     e(228 -228) =      3.77901  eV     1   --> A              
     e(229 -229) =      3.81531  eV     1   --> A              
     e(230 -230) =      3.84303  eV     1   --> A              
     e(231 -231) =      3.93634  eV     1   --> A              
     e(232 -232) =      3.98595  eV     1   --> A              
     e(233 -233) =      4.14935  eV     1   --> A              
     e(234 -234) =      4.16363  eV     1   --> A              
     e(235 -235) =      4.18119  eV     1   --> A              
     e(236 -236) =      4.22677  eV     1   --> A              
     e(237 -237) =      4.30781  eV     1   --> A              
     e(238 -238) =      4.35840  eV     1   --> A              
     e(239 -239) =      4.39686  eV     1   --> A              
     e(240 -240) =      4.43397  eV     1   --> A              
     e(241 -241) =      4.47683  eV     1   --> A              
     e(242 -242) =      4.50880  eV     1   --> A              
     e(243 -243) =      4.52110  eV     1   --> A              
     e(244 -244) =      4.56809  eV     1   --> A              
     e(245 -245) =      4.59210  eV     1   --> A              
     e(246 -246) =      4.64503  eV     1   --> A              
     e(247 -247) =      4.68755  eV     1   --> A              
     e(248 -248) =      4.73827  eV     1   --> A              
     e(249 -249) =      4.76456  eV     1   --> A              
     e(250 -250) =      4.82944  eV     1   --> A              

 **************************************************************************
 
     BANDS        :    180.72s CPU    269.14s WALL

 
   This run was terminated on:   8:52:13  20Feb2026            

=------------------------------------------------------------------------------=
   JOB DONE.
=------------------------------------------------------------------------------=
