
     Program PWSCF v.7.3.1 starts on 19Feb2026 at  9:24:16 

     This program is part of the open-source Quantum ESPRESSO suite
     for quantum simulation of materials; please cite
         "P. Giannozzi et al., J. Phys.:Condens. Matter 21 395502 (2009);
         "P. Giannozzi et al., J. Phys.:Condens. Matter 29 465901 (2017);
         "P. Giannozzi et al., J. Chem. Phys. 152 154105 (2020);
          URL http://www.quantum-espresso.org", 
     in publications or presentations arising from this work. More details at
     http://www.quantum-espresso.org/quote

     Parallel version (MPI & OpenMP), running on      64 processor cores
     Number of MPI processes:                64
     Threads/MPI process:                     1

     MPI processes distributed on     1 nodes
     478713 MiB available memory on the printing compute node when the environment starts
 
     Waiting for input...
     Reading input from standard input
Warning: card &IONS ignored
Warning: card / ignored
Warning: card &CELL ignored
Warning: card   PRESS = 0.0, ignored
Warning: card / ignored

     Current dimensions of program PWSCF are:
     Max number of different atomic species (ntypx) = 10
     Max number of k-points (npk) =  40000
     Max angular momentum in pseudopotentials (lmaxx) =  4

     IMPORTANT: XC functional enforced from input :
     Exchange-correlation= PBE
                           (   1   4   3   4   0   0   0)
     Any further DFT definition will be discarded
     Please, verify this is what you really want


     Atomic positions and unit cell read from directory:
     ./test.save/
 
 
     R & G space division:  proc/nbgrp/npool/nimage =      64
     Subspace diagonalization in iterative solution of the eigenvalue problem:
     one sub-group per band group will be used
     ELPA distributed-memory algorithm (size of sub-group:  3*  3 procs)

 
     Parallelization info
     --------------------
     sticks:   dense  smooth     PW     G-vecs:    dense   smooth      PW
     Min         180      90     24                33956    12002    1680
     Max         181      91     25                33969    12012    1689
     Sum       11557    5773   1555              2173495   768463  107785
 
     Using Slab Decomposition
 


     bravais-lattice index     =            4
     lattice parameter (alat)  =      22.8869  a.u.
     unit-cell volume          =   22488.0312 (a.u.)^3
     number of atoms/cell      =           49
     number of atomic types    =            8
     number of electrons       =       336.00
     number of Kohn-Sham states=          250
     kinetic-energy cutoff     =      40.0000  Ry
     charge density cutoff     =     320.0000  Ry
     Exchange-correlation= PBE
                           (   1   4   3   4   0   0   0)

     celldm(1)=  22.886890  celldm(2)=   0.000000  celldm(3)=   2.166010
     celldm(4)=   0.000000  celldm(5)=   0.000000  celldm(6)=   0.000000

     crystal axes: (cart. coord. in units of alat)
               a(1) = (   1.000000   0.000000   0.000000 )  
               a(2) = (  -0.500000   0.866025   0.000000 )  
               a(3) = (   0.000000   0.000000   2.166010 )  

     reciprocal axes: (cart. coord. in units 2 pi/alat)
               b(1) = (  1.000000  0.577350  0.000000 )  
               b(2) = (  0.000000  1.154701  0.000000 )  
               b(3) = (  0.000000  0.000000  0.461678 )  


     PseudoPot. # 1 for Cu read from file:
     ./cu_pbe_v1.2.uspp.F.UPF
     MD5 check sum: 6e991ff952a84172a2a52a1c1e996048
     Pseudo is Ultrasoft + core correction, Zval = 19.0
     Generated by new atomic code, or converted to UPF format
     Using radial grid of  867 points,  6 beta functions with: 
                l(1) =   0
                l(2) =   0
                l(3) =   1
                l(4) =   1
                l(5) =   2
                l(6) =   2
     Q(r) pseudized with  8 coefficients,  rinner =    1.150   1.150   1.150
                                                       1.150   1.150

     PseudoPot. # 2 for In read from file:
     ./in_pbe_v1.4.uspp.F.UPF
     MD5 check sum: 90777abd96fbb83f2e67db2a40c566b9
     Pseudo is Ultrasoft + core correction, Zval = 13.0
     Generated by new atomic code, or converted to UPF format
     Using radial grid of  889 points,  6 beta functions with: 
                l(1) =   0
                l(2) =   0
                l(3) =   1
                l(4) =   1
                l(5) =   2
                l(6) =   2
     Q(r) pseudized with  6 coefficients,  rinner =    1.400   1.400   1.400
                                                       1.400   1.400

     PseudoPot. # 3 for P  read from file:
     ./p_pbe_v1.5.uspp.F.UPF
     MD5 check sum: eb82b2c351da08c5f5f8709277dc7ee5
     Pseudo is Ultrasoft + core correction, Zval =  5.0
     Generated by new atomic code, or converted to UPF format
     Using radial grid of  903 points,  6 beta functions with: 
                l(1) =   0
                l(2) =   0
                l(3) =   1
                l(4) =   1
                l(5) =   2
                l(6) =   2
     Q(r) pseudized with  8 coefficients,  rinner =    1.300   1.300   1.300
                                                       1.300   1.300

     PseudoPot. # 4 for S  read from file:
     ./s_pbe_v1.4.uspp.F.UPF
     MD5 check sum: 88d86576ff6df21479756cfb9bdac1df
     Pseudo is Ultrasoft + core correction, Zval =  6.0
     Generated by new atomic code, or converted to UPF format
     Using radial grid of  907 points,  6 beta functions with: 
                l(1) =   0
                l(2) =   0
                l(3) =   1
                l(4) =   1
                l(5) =   2
                l(6) =   2
     Q(r) pseudized with  8 coefficients,  rinner =    1.300   1.300   1.300
                                                       1.300   1.300

     PseudoPot. # 5 for C  read from file:
     ./c_pbe_v1.2.uspp.F.UPF
     MD5 check sum: d1aef80898a10debaa0f26306b886e00
     Pseudo is Ultrasoft + core correction, Zval =  4.0
     Generated by new atomic code, or converted to UPF format
     Using radial grid of  721 points,  4 beta functions with: 
                l(1) =   0
                l(2) =   0
                l(3) =   1
                l(4) =   1
     Q(r) pseudized with  8 coefficients,  rinner =    1.100   1.100   1.100


     PseudoPot. # 6 for O  read from file:
     ./o_pbe_v1.2.uspp.F.UPF
     MD5 check sum: 734c27235a0248c51dbae37a1fbe46ec
     Pseudo is Ultrasoft + core correction, Zval =  6.0
     Generated by new atomic code, or converted to UPF format
     Using radial grid of  737 points,  5 beta functions with: 
                l(1) =   0
                l(2) =   0
                l(3) =   1
                l(4) =   1
                l(5) =   2
     Q(r) pseudized with  8 coefficients,  rinner =    0.900   0.900   0.900
                                                       0.900   0.900

     PseudoPot. # 7 for N  read from file:
     ./n_pbe_v1.2.uspp.F.UPF
     MD5 check sum: 95339753478d7afb44899504a8723017
     Pseudo is Ultrasoft + core correction, Zval =  5.0
     Generated by new atomic code, or converted to UPF format
     Using radial grid of  729 points,  4 beta functions with: 
                l(1) =   0
                l(2) =   0
                l(3) =   1
                l(4) =   1
     Q(r) pseudized with  8 coefficients,  rinner =    0.900   0.900   0.900


     PseudoPot. # 8 for H  read from file:
     ./h_pbe_v1.4.uspp.F.UPF
     MD5 check sum: 761ae9a214b05c3daf00ab9f6b793d6f
     Pseudo is Ultrasoft, Zval =  1.0
     Generated by new atomic code, or converted to UPF format
     Using radial grid of  615 points,  2 beta functions with: 
                l(1) =   0
                l(2) =   0
     Q(r) pseudized with  8 coefficients,  rinner =    0.700

     atomic species   valence    mass     pseudopotential
     Cu               19.00    63.54600     Cu( 1.00)
     In               13.00   114.81800     In( 1.00)
     P                 5.00    30.97400     P ( 1.00)
     S                 6.00    32.06500     S ( 1.00)
     C                 4.00    12.01100     C ( 1.00)
     O                 6.00    15.99900     O ( 1.00)
     N                 5.00    14.00670     N ( 1.00)
     H                 1.00     1.00780     H ( 1.00)

     No symmetry found



   Cartesian axes

     site n.     atom                  positions (alat units)
         1        Cu     tau(   1) = (   0.2581525   0.1363175   1.2031560  )
         2        Cu     tau(   2) = (   0.0081285   0.5703514   1.1637024  )
         3        Cu     tau(   3) = (   0.7575730   0.1369269   1.1637177  )
         4        Cu     tau(   4) = (   0.5087359   0.5707849   1.1634843  )
         5        In     tau(   5) = (   1.0091772  -0.0062371   1.0355603  )
         6        In     tau(   6) = (   0.7585770   0.4267451   1.0345866  )
         7        In     tau(   7) = (   0.5058436  -0.0063656   1.0364681  )
         8        In     tau(   8) = (   0.2581042   0.4254872   1.0325337  )
         9        P      tau(   9) = (   0.0079220   0.2816323   0.9576513  )
        10        P      tau(  10) = (  -0.2418791   0.7149385   0.9596100  )
        11        P      tau(  11) = (   0.5087618   0.2819974   0.9586019  )
        12        P      tau(  12) = (   0.2577114   0.7155565   0.9596820  )
        13        P      tau(  13) = (   0.0076888   0.2811604   1.1435897  )
        14        P      tau(  14) = (  -0.2413509   0.7147342   1.1456461  )
        15        P      tau(  15) = (   0.5088161   0.2823516   1.1446222  )
        16        P      tau(  16) = (   0.2579001   0.7146516   1.1454258  )
        17        S      tau(  17) = (  -0.0807049   0.1463116   0.9146194  )
        18        S      tau(  18) = (  -0.3310475   0.5801052   0.9157819  )
        19        S      tau(  19) = (   0.4198448   0.1473481   0.9148803  )
        20        S      tau(  20) = (   0.1692057   0.5804598   0.9151320  )
        21        S      tau(  21) = (   0.4190703   0.7064948   0.9158713  )
        22        S      tau(  22) = (   0.6701649   0.2727597   0.9152296  )
        23        S      tau(  23) = (  -0.0804835   0.7052011   0.9160571  )
        24        S      tau(  24) = (   0.1690469   0.2722622   0.9135197  )
        25        S      tau(  25) = (  -0.3139937   0.8592738   0.9156382  )
        26        S      tau(  26) = (  -0.0645239   0.4262019   0.9141776  )
        27        S      tau(  27) = (   0.1844216   0.8599146   0.9172652  )
        28        S      tau(  28) = (   0.4366244   0.4267577   0.9148485  )
        29        S      tau(  29) = (   0.3498391   0.8481477   1.1969995  )
        30        S      tau(  30) = (   0.6005401   0.4157761   1.1964013  )
        31        S      tau(  31) = (  -0.1474944   0.8456632   1.1991073  )
        32        S      tau(  32) = (   0.0998313   0.4149275   1.1947112  )
        33        S      tau(  33) = (   0.0748939   0.1348291   1.1973122  )
        34        S      tau(  34) = (  -0.1721311   0.5673844   1.1958869  )
        35        S      tau(  35) = (   0.5774086   0.1359909   1.1972614  )
        36        S      tau(  36) = (   0.3282863   0.5678973   1.1953363  )
        37        S      tau(  37) = (  -0.4029760   0.7277469   1.1971858  )
        38        S      tau(  38) = (  -0.1541254   0.2944823   1.1948482  )
        39        S      tau(  39) = (   0.0966331   0.7271077   1.1976463  )
        40        S      tau(  40) = (   0.3464640   0.2962880   1.1941101  )
        41        C      tau(  41) = (   0.2020696   0.1939403   1.4628549  )
        42        C      tau(  42) = (   0.1182547   0.1592302   1.5485365  )
        43        O      tau(  43) = (   0.2448599   0.1253805   1.3998501  )
        44        N      tau(  44) = (   0.2263269   0.3030996   1.4580317  )
        45        H      tau(  45) = (   0.1859595   0.3592422   1.5057861  )
        46        H      tau(  46) = (   0.2772708   0.3310933   1.3967046  )
        47        H      tau(  47) = (   0.1490133   0.0854019   1.5916328  )
        48        H      tau(  48) = (   0.0417268   0.1355596   1.5051405  )
        49        H      tau(  49) = (   0.0990111   0.2242777   1.6090664  )

     -------------------------------------------------
     Parameters for Dispersion (Grimme-D2) Correction:
     -------------------------------------------------
       atom      VdW radius       C_6     

        Cu         2.952        374.666
        In         3.160       1294.678
        P          3.222        271.980
        S          3.180        193.230
        C          2.744         60.710
        O          2.536         24.284
        N          2.640         42.670
        H          1.892          4.857

     number of k points=    96  Gaussian smearing, width (Ry)=  0.0100
                       cart. coord. in units 2pi/alat
        k(    1) = (   0.0625000   0.1082532  -0.2308392), wk =   0.0208333
        k(    2) = (   0.0625000   0.2525907  -0.2308392), wk =   0.0208333
        k(    3) = (   0.0625000   0.3969283  -0.2308392), wk =   0.0208333
        k(    4) = (   0.0625000   0.5412659  -0.2308392), wk =   0.0208333
        k(    5) = (   0.0625000  -0.4690971  -0.2308392), wk =   0.0208333
        k(    6) = (   0.0625000  -0.3247595  -0.2308392), wk =   0.0208333
        k(    7) = (   0.0625000  -0.1804220  -0.2308392), wk =   0.0208333
        k(    8) = (   0.0625000  -0.0360844  -0.2308392), wk =   0.0208333
        k(    9) = (   0.1875000   0.3247595  -0.2308392), wk =   0.0208333
        k(   10) = (   0.1875000   0.4690971  -0.2308392), wk =   0.0208333
        k(   11) = (   0.1875000   0.6134347  -0.2308392), wk =   0.0208333
        k(   12) = (   0.1875000  -0.3969283  -0.2308392), wk =   0.0208333
        k(   13) = (   0.1875000  -0.2525907  -0.2308392), wk =   0.0208333
        k(   14) = (   0.1875000  -0.1082532  -0.2308392), wk =   0.0208333
        k(   15) = (   0.3125000   0.5412659  -0.2308392), wk =   0.0208333
        k(   16) = (   0.3125000   0.6856034  -0.2308392), wk =   0.0208333
        k(   17) = (   0.3125000  -0.3247595  -0.2308392), wk =   0.0208333
        k(   18) = (   0.3125000  -0.1804220  -0.2308392), wk =   0.0208333
        k(   19) = (   0.4375000   0.7577722  -0.2308392), wk =   0.0208333
        k(   20) = (   0.4375000  -0.2525907  -0.2308392), wk =   0.0208333
        k(   21) = (  -0.0625000   0.1082532   0.2308392), wk =   0.0208333
        k(   22) = (   0.1250000   0.0000000  -0.2308392), wk =   0.0208333
        k(   23) = (  -0.0625000   0.2525907   0.2308392), wk =   0.0208333
        k(   24) = (  -0.1875000   0.1804220  -0.2308392), wk =   0.0208333
        k(   25) = (   0.2500000   0.0721688  -0.2308392), wk =   0.0208333
        k(   26) = (  -0.1875000  -0.1804220   0.2308392), wk =   0.0208333
        k(   27) = (   0.2500000  -0.0721688   0.2308392), wk =   0.0208333
        k(   28) = (  -0.0625000   0.3969283   0.2308392), wk =   0.0208333
        k(   29) = (  -0.3125000   0.2525907  -0.2308392), wk =   0.0208333
        k(   30) = (   0.3750000   0.1443376  -0.2308392), wk =   0.0208333
        k(   31) = (  -0.3125000  -0.2525907   0.2308392), wk =   0.0208333
        k(   32) = (   0.3750000  -0.1443376   0.2308392), wk =   0.0208333
        k(   33) = (  -0.0625000   0.5412659   0.2308392), wk =   0.0208333
        k(   34) = (  -0.4375000   0.3247595  -0.2308392), wk =   0.0208333
        k(   35) = (   0.5000000   0.2165064  -0.2308392), wk =   0.0208333
        k(   36) = (  -0.4375000  -0.3247595   0.2308392), wk =   0.0208333
        k(   37) = (   0.5000000  -0.2165064   0.2308392), wk =   0.0208333
        k(   38) = (  -0.0625000  -0.4690971   0.2308392), wk =   0.0208333
        k(   39) = (   0.4375000  -0.1804220  -0.2308392), wk =   0.0208333
        k(   40) = (  -0.3750000  -0.2886751  -0.2308392), wk =   0.0208333
        k(   41) = (   0.4375000   0.1804220   0.2308392), wk =   0.0208333
        k(   42) = (  -0.3750000   0.2886751   0.2308392), wk =   0.0208333
        k(   43) = (  -0.0625000  -0.3247595   0.2308392), wk =   0.0208333
        k(   44) = (   0.3125000  -0.1082532  -0.2308392), wk =   0.0208333
        k(   45) = (  -0.2500000  -0.2165064  -0.2308392), wk =   0.0208333
        k(   46) = (   0.3125000   0.1082532   0.2308392), wk =   0.0208333
        k(   47) = (  -0.2500000   0.2165064   0.2308392), wk =   0.0208333
        k(   48) = (  -0.0625000  -0.1804220   0.2308392), wk =   0.0208333
        k(   49) = (   0.1875000  -0.0360844  -0.2308392), wk =   0.0208333
        k(   50) = (  -0.1250000  -0.1443376  -0.2308392), wk =   0.0208333
        k(   51) = (   0.1875000   0.0360844   0.2308392), wk =   0.0208333
        k(   52) = (  -0.1250000   0.1443376   0.2308392), wk =   0.0208333
        k(   53) = (  -0.0625000  -0.0360844   0.2308392), wk =   0.0208333
        k(   54) = (   0.0000000  -0.0721688  -0.2308392), wk =   0.0208333
        k(   55) = (  -0.1875000   0.3247595   0.2308392), wk =   0.0208333
        k(   56) = (   0.3750000   0.0000000  -0.2308392), wk =   0.0208333
        k(   57) = (  -0.1875000   0.4690971   0.2308392), wk =   0.0208333
        k(   58) = (  -0.3125000   0.3969283  -0.2308392), wk =   0.0208333
        k(   59) = (   0.5000000   0.0721688  -0.2308392), wk =   0.0208333
        k(   60) = (  -0.3125000  -0.3969283   0.2308392), wk =   0.0208333
        k(   61) = (   0.5000000  -0.0721688   0.2308392), wk =   0.0208333
        k(   62) = (  -0.1875000   0.6134347   0.2308392), wk =   0.0208333
        k(   63) = (  -0.4375000   0.4690971  -0.2308392), wk =   0.0208333
        k(   64) = (   0.6250000   0.1443376  -0.2308392), wk =   0.0208333
        k(   65) = (  -0.4375000  -0.4690971   0.2308392), wk =   0.0208333
        k(   66) = (   0.6250000  -0.1443376   0.2308392), wk =   0.0208333
        k(   67) = (  -0.1875000  -0.3969283   0.2308392), wk =   0.0208333
        k(   68) = (   0.4375000  -0.0360844  -0.2308392), wk =   0.0208333
        k(   69) = (  -0.2500000  -0.3608439  -0.2308392), wk =   0.0208333
        k(   70) = (   0.4375000   0.0360844   0.2308392), wk =   0.0208333
        k(   71) = (  -0.2500000   0.3608439   0.2308392), wk =   0.0208333
        k(   72) = (  -0.1875000  -0.2525907   0.2308392), wk =   0.0208333
        k(   73) = (   0.3125000   0.0360844  -0.2308392), wk =   0.0208333
        k(   74) = (  -0.1250000  -0.2886751  -0.2308392), wk =   0.0208333
        k(   75) = (   0.3125000  -0.0360844   0.2308392), wk =   0.0208333
        k(   76) = (  -0.1250000   0.2886751   0.2308392), wk =   0.0208333
        k(   77) = (  -0.1875000  -0.1082532   0.2308392), wk =   0.0208333
        k(   78) = (   0.0000000  -0.2165064  -0.2308392), wk =   0.0208333
        k(   79) = (  -0.3125000   0.5412659   0.2308392), wk =   0.0208333
        k(   80) = (   0.6250000   0.0000000  -0.2308392), wk =   0.0208333
        k(   81) = (  -0.3125000   0.6856034   0.2308392), wk =   0.0208333
        k(   82) = (  -0.4375000   0.6134347  -0.2308392), wk =   0.0208333
        k(   83) = (   0.7500000   0.0721688  -0.2308392), wk =   0.0208333
        k(   84) = (  -0.4375000  -0.6134347   0.2308392), wk =   0.0208333
        k(   85) = (   0.7500000  -0.0721688   0.2308392), wk =   0.0208333
        k(   86) = (  -0.3125000  -0.3247595   0.2308392), wk =   0.0208333
        k(   87) = (   0.4375000   0.1082532  -0.2308392), wk =   0.0208333
        k(   88) = (  -0.1250000  -0.4330127  -0.2308392), wk =   0.0208333
        k(   89) = (   0.4375000  -0.1082532   0.2308392), wk =   0.0208333
        k(   90) = (  -0.1250000   0.4330127   0.2308392), wk =   0.0208333
        k(   91) = (  -0.3125000  -0.1804220   0.2308392), wk =   0.0208333
        k(   92) = (   0.0000000  -0.3608439  -0.2308392), wk =   0.0208333
        k(   93) = (  -0.4375000   0.7577722   0.2308392), wk =   0.0208333
        k(   94) = (   0.8750000   0.0000000  -0.2308392), wk =   0.0208333
        k(   95) = (  -0.4375000  -0.2525907   0.2308392), wk =   0.0208333
        k(   96) = (   0.0000000  -0.5051815  -0.2308392), wk =   0.0208333

     Dense  grid:  2173495 G-vectors     FFT dimensions: ( 135, 135, 288)

     Smooth grid:   768463 G-vectors     FFT dimensions: (  96,  96, 200)

     Estimated max dynamical RAM per process >     161.58 MB

     Estimated total dynamical RAM >      10.10 GB

     The potential is recalculated from file :
     ./test.save/charge-density


     negative rho (up, down):  3.607E-03 0.000E+00
     Starting wfcs are  237 randomized atomic wfcs +   13 random wfcs

     Band Structure Calculation
     CG style diagonalization
     c_bands:  9 eigenvalues not converged
     c_bands: 12 eigenvalues not converged
     c_bands: 12 eigenvalues not converged
     c_bands: 10 eigenvalues not converged
     c_bands: 11 eigenvalues not converged
     c_bands: 11 eigenvalues not converged
     c_bands: 12 eigenvalues not converged
     c_bands: 13 eigenvalues not converged
     c_bands: 12 eigenvalues not converged
     c_bands: 11 eigenvalues not converged
     c_bands: 14 eigenvalues not converged
     c_bands: 10 eigenvalues not converged
     c_bands: 12 eigenvalues not converged
     c_bands: 11 eigenvalues not converged
     c_bands: 12 eigenvalues not converged
     c_bands: 12 eigenvalues not converged
     c_bands: 11 eigenvalues not converged
     c_bands: 13 eigenvalues not converged
     c_bands: 12 eigenvalues not converged
     c_bands: 12 eigenvalues not converged
     c_bands: 17 eigenvalues not converged
     c_bands: 11 eigenvalues not converged
     c_bands: 13 eigenvalues not converged
     c_bands: 15 eigenvalues not converged
     c_bands: 12 eigenvalues not converged
     c_bands: 12 eigenvalues not converged
     c_bands: 13 eigenvalues not converged
     c_bands: 10 eigenvalues not converged
     c_bands: 10 eigenvalues not converged
     c_bands: 10 eigenvalues not converged
     c_bands: 11 eigenvalues not converged
     c_bands: 12 eigenvalues not converged
     c_bands: 12 eigenvalues not converged
     c_bands: 11 eigenvalues not converged
     c_bands: 10 eigenvalues not converged
     c_bands: 11 eigenvalues not converged
     c_bands: 11 eigenvalues not converged
     c_bands: 11 eigenvalues not converged
     c_bands: 10 eigenvalues not converged
     c_bands: 11 eigenvalues not converged
     c_bands: 13 eigenvalues not converged
     c_bands: 12 eigenvalues not converged
     c_bands: 14 eigenvalues not converged
     c_bands: 10 eigenvalues not converged
     c_bands:  9 eigenvalues not converged
     c_bands: 12 eigenvalues not converged
     c_bands: 10 eigenvalues not converged
     c_bands: 12 eigenvalues not converged
     c_bands: 14 eigenvalues not converged
     c_bands: 11 eigenvalues not converged
     c_bands: 13 eigenvalues not converged
     c_bands: 13 eigenvalues not converged
     c_bands: 13 eigenvalues not converged
     c_bands: 11 eigenvalues not converged
     c_bands: 10 eigenvalues not converged
     c_bands: 11 eigenvalues not converged
     c_bands: 12 eigenvalues not converged
     c_bands: 12 eigenvalues not converged
     c_bands: 11 eigenvalues not converged
     c_bands: 13 eigenvalues not converged
     c_bands: 13 eigenvalues not converged
     c_bands: 12 eigenvalues not converged
     c_bands: 12 eigenvalues not converged
     c_bands: 12 eigenvalues not converged
     c_bands: 12 eigenvalues not converged
     c_bands: 13 eigenvalues not converged
     c_bands: 11 eigenvalues not converged
     c_bands:  9 eigenvalues not converged
     c_bands: 12 eigenvalues not converged
     c_bands: 12 eigenvalues not converged
     c_bands: 10 eigenvalues not converged
     c_bands: 10 eigenvalues not converged
     c_bands: 11 eigenvalues not converged
     c_bands:  8 eigenvalues not converged
     c_bands: 10 eigenvalues not converged
     c_bands: 12 eigenvalues not converged
     c_bands: 12 eigenvalues not converged
     c_bands: 15 eigenvalues not converged
     c_bands: 11 eigenvalues not converged
     c_bands: 13 eigenvalues not converged
     c_bands:  9 eigenvalues not converged
     c_bands: 14 eigenvalues not converged
     c_bands: 12 eigenvalues not converged
     c_bands: 11 eigenvalues not converged
     c_bands: 11 eigenvalues not converged
     c_bands: 11 eigenvalues not converged
     c_bands: 12 eigenvalues not converged
     c_bands: 13 eigenvalues not converged
     c_bands:  9 eigenvalues not converged
     c_bands: 12 eigenvalues not converged
     c_bands: 10 eigenvalues not converged
     c_bands: 11 eigenvalues not converged
     c_bands: 11 eigenvalues not converged
     c_bands: 11 eigenvalues not converged
     c_bands: 11 eigenvalues not converged
     c_bands: 12 eigenvalues not converged

     ethr =  2.98E-12,  avg # of iterations = 80.9

     total cpu time spent up to now is    25845.6 secs

     End of band structure calculation

          k = 0.0625 0.1083-0.2308 ( 96006 PWs)   bands (ev):

  -113.7631-113.7564-113.7560-113.5665 -71.2348 -71.2334 -71.2276 -71.2273
   -71.2272 -71.2269 -71.0814 -71.0791 -71.0659 -71.0595 -71.0590 -70.7864
   -23.4292 -20.2008 -18.3104 -18.1564 -18.1546 -18.1387 -17.3467 -17.3425
   -17.3330 -17.3032 -16.9107 -16.9031 -16.8732 -16.8688 -16.8613 -16.6573
   -16.6541 -16.6491 -16.6262 -16.6233 -16.6213 -16.6150 -16.6141 -16.6052
   -16.6043 -16.5995 -16.5871 -16.5152 -16.5108 -16.4997 -15.8547 -15.8176
   -15.8115 -15.7832 -15.3849 -15.3775 -15.3658 -15.2237 -15.2173 -15.0936
   -15.0841 -15.0778 -14.7425 -14.7373 -14.7340 -14.6289 -14.6184 -12.5981
   -12.2362 -11.9727 -11.9686 -11.9412 -10.9101 -10.8006 -10.2963 -10.2867
   -10.2676  -9.3380  -9.1821  -8.9207  -8.9153  -8.9077  -8.5750  -8.2532
    -8.2286  -8.2173  -8.1661  -8.1282  -7.9360  -7.9193  -7.9070  -7.7016
    -7.6433  -7.6377  -7.5736  -7.5293  -7.4802  -7.2395  -7.0261  -6.9973
    -6.9847  -6.8463  -6.8398  -6.8182  -6.7756  -6.5183  -6.0303  -6.0057
    -5.9965  -5.7655  -5.7513  -5.7051  -5.6972  -5.4658  -5.4515  -5.4332
    -5.3661  -5.3562  -5.3321  -5.2425  -5.2224  -5.2152  -5.0342  -5.0177
    -5.0104  -4.9586  -4.9538  -4.7495  -4.7287  -4.6956  -4.5833  -4.5760
    -4.5584  -4.3902  -4.3811  -4.3376  -4.3136  -4.3025  -4.2721  -4.2528
    -4.2206  -4.1706  -4.0861  -3.8907  -3.8519  -3.8357  -3.7728  -3.6988
    -3.6290  -3.6185  -3.5167  -3.5022  -3.4866  -3.4456  -3.4392  -3.4132
    -3.3610  -3.3549  -3.3324  -3.2938  -3.2735  -3.1830  -3.1536  -3.0021
    -2.9415  -2.9197  -2.9122  -2.8199  -2.8011  -2.7453  -2.6020  -2.5724
    -0.7970  -0.3985  -0.3763  -0.3497   0.1513   0.4098   0.4504   0.4660
     0.5141   0.5325   0.5531   0.7510   0.7751   0.7853   0.9379   0.9537
     0.9762   0.9809   0.9875   1.2487   1.3940   1.4135   1.4337   1.5237
     1.5942   1.7373   1.7563   1.8198   1.8731   2.1745   2.2038   2.2752
     2.2943   2.3693   2.5580   2.5764   2.6002   2.6756   2.7370   2.8826
     2.9354   2.9492   2.9713   2.9911   3.0068   3.0497   3.1064   3.1520
     3.2420   3.2998   3.3896   3.4191   3.4431   3.4694   3.5278   3.6354
     3.6762   3.7190   3.8630   3.9100   3.9454   3.9784   3.9973   4.0439
     4.0812   4.1064   4.1283   4.1714   4.2115   4.2570   4.2661   4.3126
     4.3272   4.3455   4.3876   4.4086   4.4418   4.4783   4.5269   4.5494
     4.6115   4.6686

          k = 0.0625 0.2526-0.2308 ( 96096 PWs)   bands (ev):

  -113.7631-113.7564-113.7560-113.5665 -71.2348 -71.2334 -71.2276 -71.2273
   -71.2272 -71.2269 -71.0814 -71.0791 -71.0659 -71.0595 -71.0590 -70.7864
   -23.4292 -20.2008 -18.2964 -18.1698 -18.1576 -18.1396 -17.3436 -17.3409
   -17.3295 -17.3096 -16.9091 -16.8878 -16.8791 -16.8743 -16.8710 -16.6707
   -16.6528 -16.6408 -16.6261 -16.6225 -16.6200 -16.6147 -16.6136 -16.6064
   -16.6052 -16.6004 -16.5857 -16.5319 -16.5131 -16.4912 -15.8411 -15.7986
   -15.7769 -15.7510 -15.4212 -15.3976 -15.3608 -15.2785 -15.2340 -15.0871
   -15.0589 -15.0333 -14.7550 -14.7428 -14.7250 -14.6714 -14.6302 -12.5305
   -12.2365 -12.0215 -11.9730 -11.9255 -10.9080 -10.7567 -10.3433 -10.2865
   -10.2390  -9.3389  -9.1581  -8.9383  -8.8988  -8.8653  -8.5767  -8.3086
    -8.2512  -8.2362  -8.2174  -8.0894  -7.9704  -7.9545  -7.9098  -7.7470
    -7.7057  -7.6766  -7.6386  -7.4969  -7.4659  -7.2393  -7.0814  -7.0274
    -6.9942  -6.7666  -6.7478  -6.7265  -6.7010  -6.5091  -5.9887  -5.9626
    -5.9528  -5.7738  -5.7547  -5.6881  -5.6608  -5.4634  -5.4502  -5.4251
    -5.3896  -5.3595  -5.3084  -5.2537  -5.2271  -5.2146  -5.0502  -5.0286
    -5.0025  -4.9891  -4.9715  -4.7809  -4.7518  -4.7138  -4.6002  -4.5947
    -4.5724  -4.4267  -4.3856  -4.3279  -4.2969  -4.2728  -4.2307  -4.1975
    -4.1864  -4.1438  -4.0452  -3.8771  -3.8461  -3.8155  -3.7647  -3.6726
    -3.6175  -3.6042  -3.5631  -3.5087  -3.4716  -3.4531  -3.4307  -3.4056
    -3.3833  -3.3574  -3.3219  -3.2933  -3.2680  -3.2433  -3.1958  -3.0222
    -2.9691  -2.9458  -2.9202  -2.8749  -2.8042  -2.7612  -2.7159  -2.6243
    -0.6536  -0.4300  -0.3795  -0.3194   0.2433   0.3362   0.3897   0.4723
     0.5512   0.5978   0.6676   0.7315   0.7700   0.8376   0.9033   0.9328
     0.9558   0.9813   1.0064   1.2606   1.3133   1.3913   1.4208   1.5133
     1.6004   1.7337   1.7745   1.8338   1.8847   2.1427   2.1892   2.2239
     2.2568   2.3714   2.5173   2.5691   2.6249   2.6494   2.7239   2.8746
     2.8870   2.9341   2.9492   2.9962   3.0340   3.0645   3.1103   3.1441
     3.2616   3.3059   3.3954   3.4514   3.5102   3.5276   3.5794   3.6059
     3.6930   3.7248   3.7552   3.8131   3.8990   3.9549   3.9835   4.0377
     4.0746   4.1053   4.1563   4.2278   4.2461   4.2743   4.2969   4.3362
     4.3459   4.3903   4.4277   4.4592   4.5352   4.5808   4.6129   4.6437
     4.6907   4.7341

          k = 0.0625 0.3969-0.2308 ( 96092 PWs)   bands (ev):

  -113.7631-113.7564-113.7560-113.5665 -71.2348 -71.2334 -71.2276 -71.2273
   -71.2272 -71.2269 -71.0814 -71.0791 -71.0659 -71.0595 -71.0590 -70.7864
   -23.4292 -20.2008 -18.2730 -18.1951 -18.1596 -18.1394 -17.3399 -17.3378
   -17.3252 -17.3179 -16.9066 -16.9027 -16.8928 -16.8811 -16.8294 -16.7012
   -16.6490 -16.6351 -16.6252 -16.6221 -16.6177 -16.6143 -16.6129 -16.6081
   -16.6065 -16.6014 -16.5825 -16.5548 -16.5122 -16.4809 -15.8281 -15.7801
   -15.7468 -15.6619 -15.4671 -15.4328 -15.3735 -15.3351 -15.2603 -15.0747
   -15.0380 -14.9583 -14.7712 -14.7532 -14.7378 -14.7072 -14.6500 -12.4256
   -12.2375 -12.1090 -11.9713 -11.9089 -10.9065 -10.6810 -10.4278 -10.2765
   -10.2083  -9.3402  -9.1169  -8.9786  -8.8671  -8.8078  -8.5796  -8.3530
    -8.2989  -8.2829  -8.2704  -8.0332  -7.9827  -7.9653  -7.9202  -7.8296
    -7.7906  -7.7231  -7.7047  -7.5107  -7.3672  -7.2395  -7.1174  -7.0646
    -7.0404  -6.7107  -6.6756  -6.6129  -6.5986  -6.4896  -5.9362  -5.9082
    -5.8772  -5.7898  -5.7439  -5.6661  -5.6359  -5.4932  -5.4444  -5.4224
    -5.3843  -5.3544  -5.2820  -5.2684  -5.2406  -5.2170  -5.0863  -5.0465
    -5.0144  -4.9966  -4.9550  -4.8316  -4.8072  -4.7668  -4.5955  -4.5918
    -4.5617  -4.4625  -4.3750  -4.2992  -4.2798  -4.2316  -4.1970  -4.1614
    -4.1454  -4.1094  -4.0082  -3.8779  -3.8538  -3.8363  -3.7611  -3.7198
    -3.6156  -3.5876  -3.5539  -3.5222  -3.4658  -3.4585  -3.4353  -3.4073
    -3.3824  -3.3568  -3.3242  -3.2858  -3.2667  -3.2366  -3.1726  -3.0649
    -3.0108  -2.9916  -2.9500  -2.9229  -2.8751  -2.7901  -2.7266  -2.7023
    -0.4938  -0.4583  -0.4058  -0.2973   0.2510   0.3205   0.3430   0.4677
     0.5334   0.6183   0.7471   0.7748   0.8152   0.8803   0.9086   0.9233
     0.9358   0.9992   1.0940   1.2086   1.2763   1.3347   1.4154   1.4907
     1.6053   1.7383   1.8114   1.8721   1.9283   2.0912   2.1531   2.1706
     2.2616   2.3566   2.4521   2.5209   2.5484   2.6198   2.6932   2.8812
     2.9230   2.9364   2.9652   3.0037   3.0677   3.1172   3.1297   3.1994
     3.2535   3.3095   3.3570   3.4176   3.4993   3.5332   3.5523   3.6306
     3.6664   3.7238   3.7624   3.8056   3.8877   3.9314   3.9438   3.9845
     4.0769   4.1263   4.1720   4.2130   4.2401   4.2762   4.3355   4.3935
     4.4563   4.4931   4.5462   4.5643   4.5773   4.6382   4.6671   4.7119
     4.7387   4.7855

          k = 0.0625 0.5413-0.2308 ( 96066 PWs)   bands (ev):

  -113.7631-113.7564-113.7560-113.5665 -71.2348 -71.2334 -71.2276 -71.2273
   -71.2272 -71.2269 -71.0814 -71.0791 -71.0659 -71.0595 -71.0590 -70.7864
   -23.4292 -20.2008 -18.2445 -18.2250 -18.1606 -18.1392 -17.3374 -17.3350
   -17.3246 -17.3220 -16.9116 -16.9036 -16.9000 -16.8877 -16.7761 -16.7478
   -16.6467 -16.6331 -16.6245 -16.6221 -16.6155 -16.6144 -16.6125 -16.6093
   -16.6075 -16.6019 -16.5771 -16.5699 -16.5109 -16.4755 -15.8223 -15.7655
   -15.7266 -15.5529 -15.4997 -15.4896 -15.4405 -15.3154 -15.2872 -15.0645
   -15.0292 -14.8705 -14.8236 -14.7807 -14.7556 -14.6848 -14.6741 -12.3124
   -12.2485 -12.2025 -11.9696 -11.9000 -10.9058 -10.5835 -10.5304 -10.2698
   -10.1915  -9.3410  -9.0640  -9.0321  -8.8447  -8.7681  -8.5824  -8.3610
    -8.3479  -8.3239  -8.2916  -7.9865  -7.9719  -7.9415  -7.9274  -7.9020
    -7.8586  -7.7573  -7.7389  -7.5181  -7.2441  -7.2394  -7.1795  -7.1308
    -7.0412  -6.6834  -6.6579  -6.5593  -6.5313  -6.4624  -5.9158  -5.8840
    -5.7918  -5.7700  -5.7368  -5.6949  -5.6165  -5.5471  -5.4368  -5.4189
    -5.3651  -5.3380  -5.2811  -5.2719  -5.2509  -5.2133  -5.1238  -5.0662
    -5.0045  -4.9844  -4.9158  -4.8767  -4.8609  -4.8158  -4.5907  -4.5607
    -4.5437  -4.5026  -4.3646  -4.2808  -4.2523  -4.2204  -4.1795  -4.1392
    -4.1151  -4.0796  -3.9989  -3.9184  -3.8900  -3.8486  -3.8183  -3.7336
    -3.5809  -3.5715  -3.5220  -3.4971  -3.4766  -3.4696  -3.4418  -3.4215
    -3.3939  -3.3680  -3.3176  -3.2610  -3.2511  -3.2184  -3.1522  -3.0988
    -3.0708  -3.0193  -2.9597  -2.9156  -2.8843  -2.8243  -2.7856  -2.7045
    -0.4789  -0.4272  -0.3655  -0.3253   0.2006   0.2841   0.3984   0.4497
     0.4915   0.6164   0.7688   0.8144   0.8695   0.8985   0.9152   0.9279
     0.9646   1.0140   1.1500   1.2178   1.2459   1.2765   1.4051   1.4664
     1.6086   1.7374   1.8375   1.9084   2.0033   2.0326   2.1499   2.1742
     2.2168   2.3035   2.4531   2.4802   2.5124   2.5556   2.6819   2.8803
     2.9298   2.9753   3.0304   3.0469   3.0952   3.1336   3.1882   3.2310
     3.2489   3.2720   3.2948   3.3265   3.4277   3.5137   3.5876   3.6362
     3.6658   3.7139   3.8233   3.8475   3.8687   3.9041   3.9373   4.0130
     4.0692   4.1079   4.1333   4.1881   4.2082   4.3106   4.3535   4.3894
     4.5071   4.5596   4.5867   4.6145   4.6210   4.6865   4.7188   4.7397
     4.7922   4.8072

          k = 0.0625-0.4691-0.2308 ( 96096 PWs)   bands (ev):

  -113.7631-113.7564-113.7560-113.5665 -71.2348 -71.2334 -71.2276 -71.2273
   -71.2272 -71.2269 -71.0814 -71.0791 -71.0659 -71.0595 -71.0590 -70.7864
   -23.4292 -20.2008 -18.2589 -18.2102 -18.1601 -18.1393 -17.3384 -17.3362
   -17.3240 -17.3211 -16.9085 -16.9045 -16.8981 -16.8850 -16.8027 -16.7236
   -16.6471 -16.6339 -16.6247 -16.6222 -16.6162 -16.6144 -16.6127 -16.6087
   -16.6073 -16.6016 -16.5801 -16.5637 -16.5109 -16.4777 -15.8241 -15.7690
   -15.7371 -15.6060 -15.4947 -15.4407 -15.4207 -15.3299 -15.2726 -15.0654
   -15.0369 -14.9117 -14.7858 -14.7754 -14.7513 -14.6982 -14.6606 -12.3669
   -12.2390 -12.1605 -11.9702 -11.9032 -10.9059 -10.6345 -10.4778 -10.2728
   -10.1968  -9.3407  -9.0913  -9.0048  -8.8536  -8.7814  -8.5817  -8.3623
    -8.3393  -8.3094  -8.2609  -8.0264  -7.9952  -7.9444  -7.9035  -7.8659
    -7.8405  -7.7444  -7.7266  -7.5157  -7.3074  -7.2398  -7.1279  -7.1197
    -7.0348  -6.6944  -6.6738  -6.5744  -6.5492  -6.4739  -5.9270  -5.8841
    -5.8215  -5.7933  -5.7308  -5.6746  -5.6345  -5.5239  -5.4426  -5.4193
    -5.3726  -5.3376  -5.2836  -5.2641  -5.2581  -5.2153  -5.1109  -5.0457
    -5.0124  -4.9952  -4.9361  -4.8569  -4.8447  -4.7919  -4.5930  -4.5705
    -4.5507  -4.4895  -4.3652  -4.2986  -4.2627  -4.2191  -4.1767  -4.1490
    -4.1258  -4.1006  -3.9952  -3.8963  -3.8787  -3.8459  -3.7938  -3.7328
    -3.5893  -3.5831  -3.5222  -3.5068  -3.4880  -3.4539  -3.4318  -3.4264
    -3.4022  -3.3535  -3.3234  -3.2777  -3.2584  -3.2133  -3.1574  -3.1019
    -3.0516  -2.9975  -2.9509  -2.9215  -2.8889  -2.7946  -2.7771  -2.7030
    -0.4758  -0.4284  -0.4075  -0.3045   0.2155   0.3055   0.3785   0.4512
     0.4883   0.6471   0.7349   0.8257   0.8369   0.8947   0.9192   0.9380
     0.9749   0.9848   1.1109   1.1903   1.2711   1.3111   1.4284   1.4512
     1.6120   1.7399   1.8187   1.8955   1.9542   2.0741   2.1537   2.1605
     2.2455   2.3207   2.4509   2.4872   2.5207   2.6141   2.6909   2.8689
     2.9294   2.9577   3.0037   3.0386   3.0449   3.1081   3.1662   3.2400
     3.2600   3.3027   3.3227   3.3815   3.4349   3.4849   3.5719   3.6279
     3.6673   3.7595   3.7986   3.8217   3.8651   3.9276   3.9722   4.0197
     4.0669   4.0916   4.1397   4.1909   4.2433   4.2906   4.3485   4.4255
     4.4466   4.5117   4.5649   4.5724   4.6020   4.6940   4.7033   4.7526
     4.7819   4.8258

          k = 0.0625-0.3248-0.2308 ( 96052 PWs)   bands (ev):

  -113.7631-113.7564-113.7560-113.5665 -71.2348 -71.2334 -71.2276 -71.2273
   -71.2272 -71.2269 -71.0814 -71.0791 -71.0659 -71.0595 -71.0590 -70.7864
   -23.4292 -20.2008 -18.2857 -18.1818 -18.1580 -18.1398 -17.3416 -17.3396
   -17.3274 -17.3136 -16.9080 -16.8956 -16.8867 -16.8765 -16.8527 -16.6844
   -16.6501 -16.6378 -16.6257 -16.6222 -16.6188 -16.6147 -16.6133 -16.6068
   -16.6063 -16.6008 -16.5843 -16.5438 -16.5119 -16.4863 -15.8338 -15.7868
   -15.7662 -15.7089 -15.4519 -15.4031 -15.3564 -15.3223 -15.2439 -15.0772
   -15.0553 -14.9945 -14.7654 -14.7439 -14.7188 -14.7026 -14.6388 -12.4815
   -12.2367 -12.0619 -11.9719 -11.9169 -10.9069 -10.7227 -10.3821 -10.2832
   -10.2213  -9.3396  -9.1396  -8.9570  -8.8866  -8.8318  -8.5783  -8.3295
    -8.3014  -8.2504  -8.2170  -8.0625  -8.0238  -7.9362  -7.9129  -7.7857
    -7.7461  -7.7004  -7.6738  -7.5044  -7.4210  -7.2396  -7.1057  -7.0298
    -7.0200  -6.7437  -6.7163  -6.6578  -6.6442  -6.5023  -5.9633  -5.9297
    -5.9173  -5.7857  -5.7415  -5.6837  -5.6462  -5.4736  -5.4429  -5.4250
    -5.3981  -5.3501  -5.2972  -5.2530  -5.2451  -5.2133  -5.0637  -5.0370
    -5.0139  -4.9956  -4.9654  -4.8016  -4.7868  -4.7338  -4.6001  -4.5915
    -4.5684  -4.4509  -4.3741  -4.3292  -4.2797  -4.2535  -4.2012  -4.1831
    -4.1595  -4.1362  -4.0220  -3.8755  -3.8464  -3.8233  -3.7606  -3.6711
    -3.6240  -3.6069  -3.5583  -3.5154  -3.4588  -3.4495  -3.4380  -3.4127
    -3.3976  -3.3514  -3.3316  -3.2934  -3.2492  -3.2432  -3.2051  -3.0382
    -3.0039  -2.9513  -2.9278  -2.9000  -2.8501  -2.7839  -2.7164  -2.6662
    -0.5704  -0.4471  -0.3901  -0.3042   0.2833   0.2981   0.3741   0.4582
     0.5242   0.6533   0.7027   0.7377   0.7979   0.8825   0.9025   0.9203
     0.9567   0.9753   1.0125   1.2749   1.2901   1.3263   1.4350   1.4952
     1.6096   1.7379   1.7810   1.8547   1.8929   2.1251   2.1659   2.1952
     2.2673   2.3601   2.4810   2.5649   2.5828   2.6620   2.7198   2.8653
     2.8893   2.9189   2.9727   2.9914   3.0303   3.0579   3.1142   3.1696
     3.2736   3.3443   3.4067   3.4290   3.4734   3.5195   3.5495   3.6460
     3.6794   3.7307   3.7561   3.8487   3.8756   3.9034   4.0105   4.0287
     4.0940   4.1073   4.1352   4.2067   4.2477   4.2754   4.3137   4.3432
     4.4134   4.4470   4.4757   4.5020   4.5843   4.6242   4.6460   4.6782
     4.7019   4.7557

          k = 0.0625-0.1804-0.2308 ( 96040 PWs)   bands (ev):

  -113.7631-113.7564-113.7560-113.5665 -71.2348 -71.2334 -71.2276 -71.2273
   -71.2272 -71.2269 -71.0814 -71.0791 -71.0659 -71.0595 -71.0590 -70.7864
   -23.4292 -20.2008 -18.3047 -18.1628 -18.1542 -18.1398 -17.3452 -17.3420
   -17.3316 -17.3059 -16.9105 -16.8917 -16.8792 -16.8729 -16.8655 -16.6624
   -16.6540 -16.6449 -16.6263 -16.6224 -16.6210 -16.6151 -16.6138 -16.6054
   -16.6050 -16.5998 -16.5866 -16.5217 -16.5117 -16.4967 -15.8488 -15.8082
   -15.7931 -15.7758 -15.4053 -15.3755 -15.3692 -15.2497 -15.2211 -15.0904
   -15.0750 -15.0583 -14.7490 -14.7374 -14.7312 -14.6464 -14.6232 -12.5703
   -12.2363 -11.9921 -11.9702 -11.9351 -10.9089 -10.7832 -10.3136 -10.2908
   -10.2528  -9.3384  -9.1726  -8.9270  -8.9161  -8.8823  -8.5757  -8.2721
    -8.2547  -8.2119  -8.1885  -8.1114  -7.9671  -7.9249  -7.9078  -7.7206
    -7.6664  -7.6556  -7.6033  -7.5065  -7.4846  -7.2396  -7.0590  -7.0012
    -6.9915  -6.8153  -6.7901  -6.7758  -6.7449  -6.5159  -6.0124  -5.9889
    -5.9764  -5.7682  -5.7506  -5.7004  -5.6819  -5.4609  -5.4496  -5.4352
    -5.3768  -5.3534  -5.3244  -5.2451  -5.2282  -5.2125  -5.0344  -5.0239
    -5.0157  -4.9795  -4.9539  -4.7578  -4.7437  -4.6977  -4.5928  -4.5824
    -4.5699  -4.4132  -4.3791  -4.3392  -4.3094  -4.2846  -4.2493  -4.2257
    -4.1961  -4.1699  -4.0665  -3.8828  -3.8468  -3.8318  -3.7683  -3.6867
    -3.6205  -3.6095  -3.5390  -3.5053  -3.4757  -3.4440  -3.4348  -3.4044
    -3.3687  -3.3631  -3.3333  -3.2914  -3.2663  -3.2325  -3.1694  -3.0092
    -2.9516  -2.9295  -2.9134  -2.8512  -2.7988  -2.7456  -2.6649  -2.5896
    -0.7336  -0.4106  -0.3733  -0.3397   0.1935   0.3723   0.4405   0.4541
     0.5282   0.5759   0.6003   0.7336   0.7813   0.8063   0.9250   0.9484
     0.9655   0.9758   0.9859   1.2541   1.3671   1.3913   1.4321   1.5190
     1.6013   1.7356   1.7578   1.8272   1.8685   2.1629   2.2211   2.2407
     2.2622   2.3726   2.5467   2.5920   2.6187   2.6641   2.7423   2.8685
     2.9115   2.9427   2.9637   2.9903   3.0106   3.0499   3.0774   3.1361
     3.2314   3.3357   3.3700   3.4344   3.4727   3.5086   3.6040   3.6372
     3.6900   3.7069   3.8179   3.8570   3.9026   3.9418   3.9907   4.0504
     4.0849   4.1173   4.1587   4.2082   4.2228   4.2373   4.2641   4.3107
     4.3368   4.3857   4.4108   4.4541   4.4834   4.5260   4.5656   4.5875
     4.6375   4.6759

          k = 0.0625-0.0361-0.2308 ( 95996 PWs)   bands (ev):

  -113.7631-113.7564-113.7560-113.5665 -71.2348 -71.2334 -71.2276 -71.2273
   -71.2272 -71.2269 -71.0814 -71.0791 -71.0659 -71.0595 -71.0590 -70.7864
   -23.4292 -20.2008 -18.3133 -18.1567 -18.1511 -18.1383 -17.3474 -17.3428
   -17.3339 -17.3016 -16.9119 -16.9083 -16.8697 -16.8664 -16.8588 -16.6558
   -16.6535 -16.6516 -16.6261 -16.6233 -16.6217 -16.6152 -16.6142 -16.6049
   -16.6042 -16.5992 -16.5874 -16.5128 -16.5101 -16.5001 -15.8588 -15.8221
   -15.8215 -15.7858 -15.3817 -15.3701 -15.3646 -15.2183 -15.2078 -15.0953
   -15.0926 -15.0845 -14.7403 -14.7379 -14.7335 -14.6194 -14.6165 -12.6125
   -12.2362 -11.9721 -11.9575 -11.9456 -10.9107 -10.8095 -10.2928 -10.2841
   -10.2708  -9.3378  -9.1870  -8.9279  -8.9162  -8.9087  -8.5747  -8.2351
    -8.2256  -8.2163  -8.1509  -8.1393  -7.9246  -7.9155  -7.9021  -7.6926
    -7.6314  -7.6262  -7.5573  -7.5404  -7.4776  -7.2397  -7.0013  -6.9962
    -6.9816  -6.8763  -6.8568  -6.8432  -6.7956  -6.5205  -6.0384  -6.0133
    -6.0075  -5.7667  -5.7460  -5.7096  -5.7073  -5.4623  -5.4544  -5.4374
    -5.3612  -5.3489  -5.3418  -5.2357  -5.2278  -5.2144  -5.0266  -5.0185
    -5.0160  -4.9562  -4.9403  -4.7430  -4.7305  -4.6921  -4.5781  -4.5695
    -4.5459  -4.3900  -4.3620  -4.3309  -4.3269  -4.3078  -4.2872  -4.2757
    -4.2218  -4.1820  -4.0974  -3.8938  -3.8531  -3.8464  -3.7756  -3.7037
    -3.6315  -3.6223  -3.5082  -3.5004  -3.4937  -3.4480  -3.4303  -3.4264
    -3.3622  -3.3513  -3.3295  -3.2863  -3.2787  -3.1559  -3.1427  -2.9990
    -2.9324  -2.9197  -2.9119  -2.8102  -2.7943  -2.7449  -2.5741  -2.5547
    -0.8330  -0.3929  -0.3771  -0.3562   0.1278   0.4379   0.4490   0.4758
     0.4926   0.5040   0.5408   0.7559   0.7697   0.7792   0.9494   0.9519
     0.9734   0.9856   0.9989   1.2471   1.4065   1.4284   1.4316   1.5251
     1.5940   1.7458   1.7476   1.8187   1.8708   2.1819   2.1924   2.3052
     2.3161   2.3659   2.5515   2.5705   2.5877   2.6832   2.7494   2.8875
     2.9430   2.9649   2.9834   2.9865   3.0049   3.0290   3.1173   3.1558
     3.2121   3.2966   3.3658   3.4210   3.4447   3.4865   3.5381   3.5778
     3.6736   3.7145   3.8798   3.9188   3.9744   3.9986   4.0353   4.0521
     4.0689   4.1031   4.1552   4.1837   4.2058   4.2366   4.2505   4.2643
     4.2928   4.3379   4.3632   4.4158   4.4368   4.4602   4.4750   4.5519
     4.5991   4.6507

          k = 0.1875 0.3248-0.2308 ( 96062 PWs)   bands (ev):

  -113.7631-113.7564-113.7560-113.5665 -71.2348 -71.2334 -71.2276 -71.2273
   -71.2272 -71.2269 -71.0814 -71.0791 -71.0659 -71.0595 -71.0590 -70.7864
   -23.4292 -20.2008 -18.2780 -18.1794 -18.1742 -18.1350 -17.3411 -17.3382
   -17.3257 -17.3162 -16.9079 -16.9015 -16.8868 -16.8824 -16.8379 -16.6764
   -16.6699 -16.6317 -16.6260 -16.6226 -16.6184 -16.6141 -16.6128 -16.6077
   -16.6059 -16.6013 -16.5832 -16.5410 -16.5361 -16.4692 -15.8318 -15.7907
   -15.7206 -15.7033 -15.4775 -15.3835 -15.3785 -15.3387 -15.2575 -15.0860
   -15.0076 -14.9980 -14.7778 -14.7306 -14.7259 -14.7218 -14.6447 -12.4466
   -12.2367 -12.0448 -12.0396 -11.8899 -10.9066 -10.6969 -10.3634 -10.3529
   -10.1854  -9.3394  -9.1255  -8.9364  -8.9308  -8.7942  -8.5794  -8.3516
    -8.3146  -8.2709  -8.2008  -8.0598  -8.0376  -7.9475  -7.9032  -7.8156
    -7.7528  -7.7333  -7.7005  -7.5079  -7.3856  -7.2389  -7.1612  -7.0235
    -7.0078  -6.7076  -6.6936  -6.6376  -6.6142  -6.4965  -5.9422  -5.9162
    -5.8867  -5.7905  -5.7428  -5.6751  -5.6392  -5.4947  -5.4380  -5.4193
    -5.3883  -5.3589  -5.2900  -5.2606  -5.2346  -5.2121  -5.0711  -5.0403
    -5.0238  -4.9913  -4.9734  -4.8243  -4.8004  -4.7606  -4.5945  -4.5845
    -4.5665  -4.4479  -4.3829  -4.3126  -4.2860  -4.2341  -4.1987  -4.1737
    -4.1526  -4.1070  -4.0137  -3.8748  -3.8466  -3.8213  -3.7586  -3.7017
    -3.6266  -3.6007  -3.5537  -3.5126  -3.4950  -3.4507  -3.4349  -3.4188
    -3.3849  -3.3507  -3.3233  -3.2931  -3.2668  -3.2267  -3.1774  -3.0599
    -3.0123  -2.9635  -2.9442  -2.9043  -2.8948  -2.8142  -2.6944  -2.6770
    -0.5240  -0.4787  -0.3466  -0.3264   0.2238   0.3219   0.4121   0.4334
     0.4785   0.6943   0.7278   0.7580   0.8566   0.8630   0.8975   0.9372
     0.9513   0.9829   0.9958   1.1976   1.2906   1.3803   1.4209   1.4869
     1.5992   1.7189   1.8323   1.8782   1.9202   2.1117   2.1582   2.1659
     2.2639   2.3614   2.4526   2.5370   2.5943   2.6301   2.6927   2.8804
     2.9014   2.9291   2.9588   2.9840   3.0819   3.1015   3.1533   3.1797
     3.2686   3.3411   3.4092   3.4353   3.4931   3.5442   3.5558   3.5945
     3.6181   3.6729   3.7272   3.7763   3.8848   3.9237   3.9846   4.0669
     4.1017   4.1529   4.1784   4.2041   4.2684   4.3001   4.3324   4.3667
     4.4034   4.4153   4.4822   4.5078   4.5491   4.5940   4.6497   4.6821
     4.7269   4.7491

          k = 0.1875 0.4691-0.2308 ( 96084 PWs)   bands (ev):

  -113.7631-113.7564-113.7560-113.5665 -71.2348 -71.2334 -71.2276 -71.2273
   -71.2272 -71.2269 -71.0814 -71.0791 -71.0659 -71.0595 -71.0590 -70.7864
   -23.4292 -20.2008 -18.2522 -18.2051 -18.1808 -18.1313 -17.3384 -17.3358
   -17.3235 -17.3211 -16.9140 -16.9051 -16.8962 -16.8895 -16.7888 -16.7107
   -16.6728 -16.6287 -16.6249 -16.6224 -16.6161 -16.6139 -16.6122 -16.6090
   -16.6072 -16.6016 -16.5786 -16.5606 -16.5419 -16.4526 -15.8248 -15.7832
   -15.6757 -15.6161 -15.5228 -15.4523 -15.3948 -15.3398 -15.2906 -15.0816
   -14.9794 -14.9291 -14.8022 -14.7935 -14.7295 -14.7019 -14.6667 -12.3388
   -12.2364 -12.1402 -12.0525 -11.8652 -10.9056 -10.6098 -10.4550 -10.3632
   -10.1470  -9.3404  -9.0766  -8.9859  -8.9231  -8.7225  -8.5821  -8.3760
    -8.3562  -8.3215  -8.2199  -8.0699  -7.9823  -7.9367  -7.9096  -7.8999
    -7.8120  -7.7764  -7.7559  -7.5182  -7.2705  -7.2402  -7.2065  -7.0875
    -7.0257  -6.6787  -6.6186  -6.5808  -6.5448  -6.4750  -5.8969  -5.8429
    -5.8310  -5.7908  -5.7267  -5.6874  -5.6344  -5.5488  -5.4267  -5.4145
    -5.3700  -5.3470  -5.2909  -5.2592  -5.2285  -5.2072  -5.1035  -5.0722
    -5.0181  -4.9895  -4.9586  -4.8768  -4.8522  -4.8222  -4.5848  -4.5583
    -4.5438  -4.4723  -4.3719  -4.2974  -4.2522  -4.2222  -4.1732  -4.1436
    -4.1198  -4.0828  -3.9939  -3.8993  -3.8779  -3.8535  -3.7979  -3.7517
    -3.6080  -3.5683  -3.5548  -3.5197  -3.4801  -3.4517  -3.4426  -3.4139
    -3.3725  -3.3537  -3.3017  -3.2930  -3.2542  -3.2288  -3.1416  -3.1005
    -3.0725  -3.0170  -2.9589  -2.9416  -2.8917  -2.8293  -2.7654  -2.6501
    -0.5087  -0.4069  -0.3665  -0.3242   0.1445   0.3627   0.3762   0.4143
     0.4384   0.7200   0.7529   0.8390   0.8635   0.8849   0.9068   0.9195
     0.9822   1.0050   1.0835   1.1230   1.2536   1.3819   1.4046   1.4746
     1.5936   1.6958   1.9044   1.9417   2.0048   2.0796   2.1393   2.1551
     2.2215   2.3299   2.4497   2.5019   2.5129   2.5606   2.6833   2.8408
     2.9098   2.9776   3.0189   3.0389   3.1230   3.1666   3.2097   3.2356
     3.2566   3.3118   3.3261   3.3987   3.4311   3.4779   3.5544   3.5799
     3.6471   3.6906   3.7224   3.7643   3.8346   3.8867   3.9988   4.0359
     4.0611   4.1712   4.1834   4.2125   4.2996   4.3294   4.3638   4.3993
     4.4612   4.4795   4.5446   4.5585   4.5965   4.6488   4.6581   4.7271
     4.7764   4.8366

          k = 0.1875 0.6134-0.2308 ( 96082 PWs)   bands (ev):

  -113.7631-113.7564-113.7560-113.5665 -71.2348 -71.2334 -71.2276 -71.2273
   -71.2272 -71.2269 -71.0814 -71.0791 -71.0659 -71.0595 -71.0590 -70.7864
   -23.4292 -20.2008 -18.2381 -18.2198 -18.1816 -18.1305 -17.3377 -17.3350
   -17.3248 -17.3206 -16.9163 -16.9048 -16.8990 -16.8910 -16.7617 -16.7357
   -16.6722 -16.6284 -16.6244 -16.6225 -16.6150 -16.6141 -16.6123 -16.6092
   -16.6078 -16.6015 -16.5751 -16.5678 -16.5422 -16.4489 -15.8230 -15.7797
   -15.6683 -15.5601 -15.5417 -15.4988 -15.3968 -15.3349 -15.3009 -15.0794
   -14.9791 -14.8815 -14.8443 -14.7997 -14.7281 -14.6925 -14.6773 -12.2923
   -12.2310 -12.1899 -12.0544 -11.8599 -10.9053 -10.5605 -10.5066 -10.3643
   -10.1381  -9.3407  -9.0491  -9.0155  -8.9197  -8.7002  -8.5843  -8.3813
    -8.3661  -8.3375  -8.2143  -8.0833  -7.9576  -7.9476  -7.9265  -7.8759
    -7.8491  -7.7861  -7.7699  -7.5203  -7.2415  -7.2161  -7.2057  -7.1467
    -7.0209  -6.6721  -6.6240  -6.5574  -6.5259  -6.4644  -5.8910  -5.8304
    -5.7870  -5.7797  -5.7280  -5.7041  -5.6397  -5.5691  -5.4314  -5.4076
    -5.3661  -5.3325  -5.2910  -5.2620  -5.2337  -5.2042  -5.1166  -5.0644
    -5.0228  -4.9946  -4.9247  -4.9078  -4.8833  -4.8304  -4.5838  -4.5439
    -4.5231  -4.4964  -4.3630  -4.2952  -4.2511  -4.2178  -4.1642  -4.1361
    -4.1107  -4.0732  -3.9877  -3.9203  -3.9009  -3.8526  -3.8218  -3.7470
    -3.5936  -3.5763  -3.5397  -3.5093  -3.4797  -3.4704  -3.4290  -3.4058
    -3.3858  -3.3670  -3.3131  -3.2655  -3.2355  -3.2150  -3.1547  -3.1367
    -3.0877  -3.0403  -2.9420  -2.9196  -2.8713  -2.8460  -2.8053  -2.6413
    -0.5128  -0.3821  -0.3621  -0.3348   0.1256   0.3591   0.3859   0.3962
     0.4280   0.7179   0.7721   0.8474   0.8507   0.9078   0.9165   0.9469
     0.9816   1.0043   1.0564   1.1345   1.2710   1.3542   1.4135   1.4606
     1.5941   1.6872   1.9229   1.9574   2.0271   2.0837   2.1408   2.1611
     2.2074   2.3049   2.4543   2.4627   2.5077   2.5769   2.6878   2.8050
     2.9104   3.0010   3.0553   3.0678   3.1080   3.1654   3.2105   3.2594
     3.2764   3.2964   3.3385   3.3507   3.4071   3.4243   3.5448   3.5727
     3.6411   3.7129   3.7688   3.7784   3.8282   3.8842   3.9655   4.0387
     4.0996   4.1402   4.1874   4.2321   4.2881   4.3084   4.3725   4.3869
     4.4661   4.5048   4.5534   4.5811   4.6258   4.6480   4.6878   4.7400
     4.7862   4.8337

          k = 0.1875-0.3969-0.2308 ( 96040 PWs)   bands (ev):

  -113.7631-113.7564-113.7560-113.5665 -71.2348 -71.2334 -71.2276 -71.2273
   -71.2272 -71.2269 -71.0814 -71.0791 -71.0659 -71.0595 -71.0590 -70.7864
   -23.4292 -20.2008 -18.2657 -18.1927 -18.1768 -18.1330 -17.3394 -17.3372
   -17.3240 -17.3192 -16.9087 -16.9064 -16.8926 -16.8866 -16.8137 -16.6914
   -16.6719 -16.6298 -16.6253 -16.6224 -16.6166 -16.6144 -16.6128 -16.6080
   -16.6073 -16.6010 -16.5812 -16.5510 -16.5398 -16.4596 -15.8281 -15.7863
   -15.6960 -15.6611 -15.5075 -15.4004 -15.3787 -15.3650 -15.2690 -15.0835
   -14.9954 -14.9617 -14.7895 -14.7619 -14.7244 -14.7167 -14.6545 -12.3945
   -12.2361 -12.0905 -12.0470 -11.8757 -10.9055 -10.6571 -10.4044 -10.3622
   -10.1621  -9.3401  -9.1034  -8.9589  -8.9302  -8.7489  -8.5817  -8.3674
    -8.3431  -8.2980  -8.1783  -8.1095  -8.0063  -7.9401  -7.8963  -7.8655
    -7.7829  -7.7549  -7.7313  -7.5138  -7.3303  -7.2403  -7.1889  -7.0494
    -7.0131  -6.6912  -6.6619  -6.5935  -6.5802  -6.4859  -5.9160  -5.8771
    -5.8511  -5.7964  -5.7260  -5.6793  -5.6437  -5.5162  -5.4359  -5.4168
    -5.3824  -5.3469  -5.2808  -5.2599  -5.2442  -5.2129  -5.0821  -5.0601
    -5.0274  -4.9930  -4.9650  -4.8554  -4.8364  -4.7816  -4.5874  -4.5690
    -4.5553  -4.4662  -4.3633  -4.3188  -4.2625  -4.2275  -4.1786  -4.1572
    -4.1297  -4.1071  -3.9950  -3.8920  -3.8563  -3.8382  -3.7765  -3.7365
    -3.6086  -3.5913  -3.5399  -3.5252  -3.4948  -3.4502  -3.4295  -3.4207
    -3.3798  -3.3529  -3.3134  -3.2909  -3.2719  -3.2171  -3.1601  -3.0767
    -3.0499  -2.9864  -2.9496  -2.9319  -2.9118  -2.8191  -2.7268  -2.6602
    -0.4992  -0.4572  -0.3536  -0.3240   0.1811   0.3538   0.4050   0.4147
     0.4365   0.6906   0.7774   0.7888   0.8654   0.9036   0.9119   0.9299
     0.9708   0.9748   1.0094   1.1422   1.3087   1.3615   1.4322   1.4576
     1.6076   1.7020   1.8709   1.9052   1.9340   2.1127   2.1442   2.1591
     2.2493   2.3421   2.4621   2.5267   2.5431   2.6391   2.6990   2.8075
     2.9120   2.9480   2.9833   3.0187   3.0781   3.1039   3.1723   3.2221
     3.2846   3.3459   3.3710   3.4100   3.4357   3.5043   3.5470   3.5566
     3.6184   3.7024   3.7607   3.7958   3.8708   3.9061   3.9863   4.0603
     4.0941   4.1688   4.1971   4.2507   4.2679   4.3140   4.3492   4.3945
     4.4245   4.4468   4.5046   4.5169   4.5433   4.6097   4.6521   4.6919
     4.7496   4.7811

          k = 0.1875-0.2526-0.2308 ( 96066 PWs)   bands (ev):

  -113.7631-113.7564-113.7560-113.5665 -71.2348 -71.2334 -71.2276 -71.2273
   -71.2272 -71.2269 -71.0814 -71.0791 -71.0659 -71.0595 -71.0590 -70.7864
   -23.4292 -20.2008 -18.2883 -18.1765 -18.1620 -18.1381 -17.3424 -17.3394
   -17.3284 -17.3124 -16.9088 -16.8944 -16.8827 -16.8789 -16.8560 -16.6729
   -16.6611 -16.6353 -16.6264 -16.6223 -16.6193 -16.6148 -16.6132 -16.6071
   -16.6058 -16.6004 -16.5847 -16.5366 -16.5239 -16.4800 -15.8365 -15.7931
   -15.7526 -15.7303 -15.4519 -15.3913 -15.3598 -15.3153 -15.2399 -15.0884
   -15.0318 -15.0195 -14.7670 -14.7364 -14.7232 -14.6948 -14.6368 -12.4933
   -12.2364 -12.0348 -12.0005 -11.9080 -10.9064 -10.7317 -10.3552 -10.3171
   -10.2095  -9.3391  -9.1447  -8.9448  -8.9129  -8.8229  -8.5782  -8.3212
    -8.2958  -8.2386  -8.2197  -8.0689  -8.0136  -7.9491  -7.9083  -7.7789
    -7.7249  -7.7013  -7.6687  -7.5021  -7.4306  -7.2395  -7.1268  -7.0173
    -7.0012  -6.7376  -6.7169  -6.6847  -6.6601  -6.5077  -5.9665  -5.9414
    -5.9210  -5.7809  -5.7447  -5.6838  -5.6502  -5.4668  -5.4407  -5.4307
    -5.3943  -5.3588  -5.2947  -5.2518  -5.2422  -5.2113  -5.0575  -5.0406
    -5.0243  -5.0010  -4.9548  -4.8025  -4.7781  -4.7267  -4.5986  -4.5832
    -4.5780  -4.4417  -4.3715  -4.3295  -4.2790  -4.2607  -4.2278  -4.1834
    -4.1567  -4.1343  -4.0290  -3.8788  -3.8376  -3.8260  -3.7595  -3.6636
    -3.6232  -3.6072  -3.5611  -3.5106  -3.4878  -3.4518  -3.4330  -3.4009
    -3.3845  -3.3600  -3.3205  -3.3075  -3.2584  -3.2337  -3.2013  -3.0419
    -2.9773  -2.9485  -2.9282  -2.9103  -2.8491  -2.7893  -2.7054  -2.6447
    -0.5903  -0.4544  -0.3595  -0.3226   0.2794   0.2881   0.3964   0.4616
     0.5136   0.6628   0.6957   0.7254   0.8111   0.8512   0.8979   0.9349
     0.9458   0.9769   1.0085   1.2528   1.2793   1.3921   1.4109   1.5021
     1.6078   1.7221   1.8050   1.8497   1.8772   2.1345   2.1845   2.1921
     2.2582   2.3686   2.5082   2.5658   2.6080   2.6819   2.7167   2.8411
     2.8940   2.9200   2.9494   2.9789   3.0353   3.0730   3.1070   3.1609
     3.2159   3.3298   3.3957   3.4759   3.5124   3.5678   3.5759   3.6153
     3.6490   3.6962   3.7428   3.8050   3.8889   3.9576   3.9909   4.0659
     4.0866   4.1434   4.1658   4.2108   4.2265   4.2835   4.3139   4.3549
     4.3710   4.4080   4.4543   4.4915   4.5514   4.6100   4.6215   4.6613
     4.6867   4.7613

          k = 0.1875-0.1083-0.2308 ( 96046 PWs)   bands (ev):

  -113.7631-113.7564-113.7560-113.5665 -71.2348 -71.2334 -71.2276 -71.2273
   -71.2272 -71.2269 -71.0814 -71.0791 -71.0659 -71.0595 -71.0590 -70.7864
   -23.4292 -20.2008 -18.3019 -18.1671 -18.1515 -18.1417 -17.3453 -17.3401
   -17.3320 -17.3069 -16.9103 -16.8892 -16.8797 -16.8733 -16.8681 -16.6672
   -16.6484 -16.6462 -16.6268 -16.6227 -16.6204 -16.6151 -16.6136 -16.6061
   -16.6048 -16.5998 -16.5863 -16.5278 -16.5064 -16.4978 -15.8413 -15.8066
   -15.7932 -15.7645 -15.4091 -15.3923 -15.3587 -15.2643 -15.2215 -15.0847
   -15.0774 -15.0462 -14.7478 -14.7448 -14.7268 -14.6543 -14.6260 -12.5567
   -12.2362 -12.0084 -11.9512 -11.9456 -10.9079 -10.7749 -10.3327 -10.2704
   -10.2579  -9.3382  -9.1681  -8.9441  -8.8912  -8.8823  -8.5765  -8.2765
    -8.2503  -8.2357  -8.1895  -8.1111  -7.9595  -7.9390  -7.9121  -7.7268
    -7.6853  -7.6590  -7.6164  -7.4977  -7.4840  -7.2391  -7.0471  -7.0377
    -6.9896  -6.7980  -6.7781  -6.7582  -6.7206  -6.5168  -6.0045  -5.9763
    -5.9718  -5.7741  -5.7418  -5.6994  -5.6745  -5.4594  -5.4462  -5.4365
    -5.3827  -5.3550  -5.3172  -5.2426  -5.2363  -5.2131  -5.0409  -5.0267
    -5.0117  -4.9907  -4.9509  -4.7634  -4.7505  -4.7014  -4.5941  -4.5836
    -4.5735  -4.4167  -4.3841  -4.3238  -4.3078  -4.2876  -4.2525  -4.2163
    -4.1900  -4.1522  -4.0600  -3.8779  -3.8441  -3.8357  -3.7631  -3.6789
    -3.6183  -3.6033  -3.5469  -3.5077  -3.4734  -3.4512  -3.4227  -3.4122
    -3.3704  -3.3665  -3.3297  -3.2854  -3.2699  -3.2454  -3.1787  -3.0135
    -2.9573  -2.9329  -2.9165  -2.8652  -2.7936  -2.7533  -2.6887  -2.5993
    -0.7048  -0.4112  -0.3849  -0.3277   0.2139   0.3739   0.3954   0.4797
     0.5526   0.5568   0.6310   0.7389   0.7611   0.8250   0.9229   0.9349
     0.9577   0.9655   1.0099   1.2548   1.3519   1.3885   1.4248   1.5157
     1.5983   1.7380   1.7694   1.8220   1.8677   2.1556   2.2208   2.2360
     2.2558   2.3735   2.5501   2.5771   2.6256   2.7015   2.7250   2.8467
     2.9134   2.9409   2.9518   2.9904   3.0061   3.0611   3.0816   3.1177
     3.1983   3.3033   3.3829   3.4678   3.4979   3.5463   3.6018   3.6478
     3.6841   3.7438   3.7862   3.8423   3.9160   3.9449   3.9980   4.0128
     4.0523   4.1013   4.1505   4.2056   4.2251   4.2701   4.3043   4.3328
     4.3524   4.3862   4.4209   4.4430   4.4882   4.5275   4.5685   4.6121
     4.6625   4.7051

          k = 0.3125 0.5413-0.2308 ( 96108 PWs)   bands (ev):

  -113.7631-113.7564-113.7560-113.5665 -71.2348 -71.2334 -71.2276 -71.2273
   -71.2272 -71.2269 -71.0814 -71.0791 -71.0659 -71.0595 -71.0590 -70.7864
   -23.4292 -20.2008 -18.2276 -18.2129 -18.2030 -18.1272 -17.3381 -17.3342
   -17.3258 -17.3194 -16.9195 -16.9055 -16.8989 -16.8937 -16.7397 -16.7175
   -16.7096 -16.6267 -16.6249 -16.6228 -16.6152 -16.6139 -16.6114 -16.6095
   -16.6077 -16.6014 -16.5709 -16.5647 -16.5610 -16.4374 -15.8206 -15.7840
   -15.5955 -15.5842 -15.5565 -15.5333 -15.3646 -15.3437 -15.3259 -15.0830
   -14.9128 -14.9097 -14.8738 -14.8088 -14.7044 -14.7005 -14.6879 -12.2674
   -12.2053 -12.1622 -12.1432 -11.8442 -10.9049 -10.5167 -10.4704 -10.4611
   -10.1162  -9.3402  -9.0217  -8.9906  -8.9857  -8.6655  -8.5851  -8.3890
    -8.3741  -8.3484  -8.1545  -8.1429  -7.9938  -7.9261  -7.9061  -7.8837
    -7.8296  -7.8197  -7.8043  -7.5220  -7.2545  -7.2362  -7.1535  -7.1009
    -7.0915  -6.6642  -6.5851  -6.5407  -6.5263  -6.4723  -5.8301  -5.8104
    -5.8030  -5.7689  -5.7550  -5.6902  -5.6527  -5.5925  -5.4255  -5.3903
    -5.3709  -5.3335  -5.3086  -5.2477  -5.2180  -5.1896  -5.1046  -5.0879
    -5.0366  -4.9800  -4.9542  -4.9024  -4.8911  -4.8721  -4.5800  -4.5282
    -4.5059  -4.4950  -4.3639  -4.2874  -4.2583  -4.2265  -4.1540  -4.1308
    -4.1046  -4.0647  -3.9765  -3.9188  -3.8994  -3.8803  -3.8317  -3.7542
    -3.5994  -3.5780  -3.5449  -3.5158  -3.4773  -3.4723  -3.4257  -3.4013
    -3.3786  -3.3410  -3.3174  -3.2714  -3.2430  -3.2131  -3.1521  -3.1336
    -3.1064  -3.0850  -2.9292  -2.9099  -2.8700  -2.8593  -2.8075  -2.6165
    -0.5245  -0.3688  -0.3519  -0.3393   0.0873   0.3555   0.3786   0.3969
     0.4156   0.7138   0.8343   0.8515   0.8594   0.9036   0.9203   0.9311
     0.9539   1.0034   1.1049   1.1268   1.1804   1.4149   1.4262   1.4457
     1.5701   1.6758   1.9433   2.0682   2.0926   2.0956   2.1194   2.1386
     2.1716   2.3007   2.4413   2.4777   2.4913   2.5613   2.6844   2.7712
     2.8961   3.0384   3.0724   3.0958   3.1339   3.1959   3.2396   3.2691
     3.2904   3.3040   3.3205   3.3546   3.3747   3.4229   3.4656   3.5787
     3.6839   3.6951   3.7271   3.7562   3.8067   3.8352   3.9614   3.9864
     4.1436   4.1588   4.1943   4.2210   4.2966   4.3661   4.4050   4.4166
     4.4768   4.4895   4.5313   4.5730   4.6020   4.6410   4.6853   4.7173
     4.7667   4.8262

          k = 0.3125 0.6856-0.2308 ( 96126 PWs)   bands (ev):

  -113.7631-113.7564-113.7560-113.5665 -71.2348 -71.2334 -71.2276 -71.2273
   -71.2272 -71.2269 -71.0814 -71.0791 -71.0659 -71.0595 -71.0590 -70.7864
   -23.4292 -20.2008 -18.2392 -18.2108 -18.1915 -18.1287 -17.3383 -17.3347
   -17.3247 -17.3203 -16.9172 -16.9054 -16.8973 -16.8936 -16.7643 -16.7131
   -16.6912 -16.6271 -16.6252 -16.6226 -16.6151 -16.6143 -16.6120 -16.6095
   -16.6075 -16.6011 -16.5751 -16.5628 -16.5531 -16.4425 -15.8215 -15.7842
   -15.6311 -15.5990 -15.5478 -15.4910 -15.3816 -15.3449 -15.3044 -15.0828
   -14.9462 -14.9185 -14.8365 -14.8035 -14.7167 -14.7004 -14.6771 -12.2945
   -12.2293 -12.1500 -12.1008 -11.8516 -10.9046 -10.5668 -10.4634 -10.4122
   -10.1262  -9.3402  -9.0522  -8.9904  -8.9532  -8.6823  -8.5842  -8.3889
    -8.3637  -8.3378  -8.1910  -8.1097  -7.9678  -7.9438  -7.9160  -7.8913
    -7.8194  -7.8050  -7.7835  -7.5195  -7.2463  -7.2311  -7.2116  -7.0927
    -7.0531  -6.6703  -6.5888  -6.5655  -6.5368  -6.4697  -5.8608  -5.8240
    -5.8099  -5.7789  -5.7208  -5.7024  -5.6432  -5.5761  -5.4280  -5.3945
    -5.3715  -5.3387  -5.3006  -5.2545  -5.2211  -5.2037  -5.1011  -5.0833
    -5.0287  -4.9940  -4.9491  -4.9080  -4.8685  -4.8475  -4.5796  -4.5346
    -4.5326  -4.4778  -4.3587  -4.2970  -4.2613  -4.2196  -4.1627  -4.1384
    -4.1108  -4.0643  -3.9749  -3.9257  -3.8888  -3.8588  -3.8372  -3.7474
    -3.6013  -3.5754  -3.5475  -3.5186  -3.4834  -3.4608  -3.4233  -3.4083
    -3.3701  -3.3580  -3.3081  -3.2854  -3.2367  -3.2187  -3.1497  -3.1283
    -3.1019  -3.0506  -2.9356  -2.9205  -2.9029  -2.8390  -2.7846  -2.6273
    -0.5180  -0.3815  -0.3553  -0.3357   0.1087   0.3656   0.3770   0.4023
     0.4176   0.7083   0.8065   0.8489   0.8738   0.8856   0.9086   0.9282
     0.9743   1.0313   1.0489   1.1259   1.2283   1.4005   1.4109   1.4601
     1.5822   1.6799   1.9287   2.0028   2.0354   2.0983   2.1325   2.1503
     2.1970   2.3233   2.4677   2.4718   2.5020   2.6037   2.6894   2.7383
     2.9077   3.0109   3.0453   3.0821   3.1231   3.1754   3.2358   3.2466
     3.2781   3.3087   3.3292   3.3608   3.3876   3.4526   3.4847   3.5374
     3.6579   3.7068   3.7461   3.8145   3.8301   3.8785   3.8982   4.0638
     4.1236   4.1735   4.1952   4.2205   4.2975   4.3305   4.3841   4.4179
     4.4471   4.5070   4.5430   4.5582   4.6052   4.6498   4.6923   4.7172
     4.7468   4.8059

          k = 0.3125-0.3248-0.2308 ( 96096 PWs)   bands (ev):

  -113.7631-113.7564-113.7560-113.5665 -71.2348 -71.2334 -71.2276 -71.2273
   -71.2272 -71.2269 -71.0814 -71.0791 -71.0659 -71.0595 -71.0590 -70.7864
   -23.4292 -20.2008 -18.2633 -18.2019 -18.1674 -18.1357 -17.3392 -17.3364
   -17.3248 -17.3195 -16.9080 -16.9057 -16.8928 -16.8889 -16.8098 -16.7066
   -16.6591 -16.6301 -16.6262 -16.6221 -16.6174 -16.6144 -16.6126 -16.6092
   -16.6063 -16.6009 -16.5808 -16.5587 -16.5266 -16.4654 -15.8239 -15.7836
   -15.7126 -15.6390 -15.5003 -15.4189 -15.4101 -15.3360 -15.2692 -15.0797
   -15.0107 -14.9422 -14.7859 -14.7656 -14.7413 -14.7032 -14.6576 -12.3847
   -12.2373 -12.1269 -12.0078 -11.8859 -10.9048 -10.6504 -10.4455 -10.3160
   -10.1734  -9.3396  -9.1007  -8.9893  -8.8916  -8.7575  -8.5808  -8.3593
    -8.3369  -8.2950  -8.2559  -8.0220  -8.0082  -7.9473  -7.9164  -7.8727
    -7.7976  -7.7481  -7.7299  -7.5125  -7.3231  -7.2395  -7.1688  -7.0781
    -7.0232  -6.6954  -6.6412  -6.6059  -6.5645  -6.4877  -5.9205  -5.8814
    -5.8412  -5.7905  -5.7364  -5.6639  -5.6397  -5.5186  -5.4299  -5.4131
    -5.3800  -5.3572  -5.2797  -5.2691  -5.2387  -5.2155  -5.0940  -5.0691
    -5.0242  -4.9978  -4.9443  -4.8558  -4.8291  -4.7921  -4.5813  -4.5734
    -4.5623  -4.4650  -4.3604  -4.3063  -4.2563  -4.2363  -4.2011  -4.1558
    -4.1230  -4.0856  -3.9922  -3.8991  -3.8730  -3.8269  -3.7904  -3.7356
    -3.6036  -3.5750  -3.5537  -3.5277  -3.4743  -3.4560  -3.4335  -3.4094
    -3.3822  -3.3468  -3.3167  -3.2982  -3.2608  -3.2275  -3.1504  -3.0896
    -3.0365  -2.9962  -2.9611  -2.9397  -2.9095  -2.8075  -2.7318  -2.6790
    -0.4873  -0.4449  -0.3837  -0.3087   0.1966   0.3344   0.3726   0.4571
     0.4665   0.6817   0.7221   0.8177   0.8511   0.8867   0.9041   0.9241
     0.9421   0.9992   1.1163   1.1481   1.2698   1.3624   1.3964   1.4832
     1.6056   1.7102   1.8669   1.9045   1.9258   2.0889   2.1481   2.1640
     2.2435   2.3554   2.4757   2.5026   2.5542   2.6416   2.7092   2.7638
     2.9237   2.9611   2.9897   3.0122   3.0743   3.1055   3.1631   3.2160
     3.2453   3.2982   3.3488   3.4174   3.4606   3.5134   3.5322   3.6079
     3.6549   3.7290   3.7483   3.8240   3.8765   3.9269   3.9659   4.0286
     4.0896   4.1314   4.1813   4.2139   4.2889   4.3127   4.3526   4.3929
     4.4625   4.4965   4.5131   4.5525   4.5769   4.6572   4.6753   4.7002
     4.7440   4.7851

          k = 0.3125-0.1804-0.2308 ( 96048 PWs)   bands (ev):

  -113.7631-113.7564-113.7560-113.5665 -71.2348 -71.2334 -71.2276 -71.2273
   -71.2272 -71.2269 -71.0814 -71.0791 -71.0659 -71.0595 -71.0590 -70.7864
   -23.4292 -20.2008 -18.2805 -18.1896 -18.1521 -18.1440 -17.3420 -17.3363
   -17.3287 -17.3147 -16.9073 -16.8969 -16.8910 -16.8800 -16.8418 -16.6936
   -16.6429 -16.6400 -16.6267 -16.6222 -16.6188 -16.6147 -16.6130 -16.6084
   -16.6055 -16.6006 -16.5836 -16.5506 -16.5009 -16.4924 -15.8241 -15.7842
   -15.7663 -15.6870 -15.4512 -15.4306 -15.3509 -15.3389 -15.2460 -15.0683
   -15.0597 -14.9755 -14.7605 -14.7572 -14.7180 -14.7105 -14.6436 -12.4582
   -12.2368 -12.0874 -11.9424 -11.9371 -10.9054 -10.7071 -10.4099 -10.2497
   -10.2371  -9.3389  -9.1318  -8.9777  -8.8506  -8.8380  -8.5789  -8.3287
    -8.2953  -8.2719  -8.2501  -8.0546  -7.9930  -7.9459  -7.9255  -7.7982
    -7.7741  -7.7073  -7.6862  -7.5054  -7.4002  -7.2389  -7.0747  -7.0691
    -7.0460  -6.7357  -6.6895  -6.6516  -6.6057  -6.5047  -5.9511  -5.9282
    -5.8940  -5.7869  -5.7361  -5.6740  -5.6427  -5.4803  -5.4410  -5.4178
    -5.3970  -5.3533  -5.2913  -5.2600  -5.2483  -5.2149  -5.0767  -5.0481
    -5.0167  -5.0017  -4.9469  -4.8168  -4.7897  -4.7513  -4.5939  -4.5856
    -4.5719  -4.4537  -4.3745  -4.3063  -4.2845  -4.2496  -4.2213  -4.1771
    -4.1464  -4.1040  -4.0148  -3.8807  -3.8540  -3.8245  -3.7610  -3.6879
    -3.6208  -3.5912  -3.5528  -3.5227  -3.4634  -3.4551  -3.4330  -3.4079
    -3.3920  -3.3547  -3.3286  -3.2899  -3.2639  -3.2338  -3.1997  -3.0526
    -3.0078  -2.9670  -2.9370  -2.9185  -2.8593  -2.7692  -2.7374  -2.6827
    -0.5347  -0.4404  -0.4110  -0.2958   0.2928   0.3151   0.3291   0.4748
     0.5641   0.5914   0.7275   0.7612   0.7866   0.8891   0.9025   0.9136
     0.9509   0.9776   1.0643   1.2617   1.2807   1.3174   1.4196   1.4921
     1.6056   1.7450   1.7943   1.8615   1.8829   2.1081   2.1696   2.1860
     2.2693   2.3630   2.4739   2.5472   2.6126   2.6735   2.7252   2.8189
     2.8897   2.9410   2.9597   2.9776   3.0162   3.0542   3.1204   3.1729
     3.2371   3.3161   3.3988   3.4284   3.4873   3.5198   3.6064   3.6514
     3.6858   3.7284   3.7668   3.8527   3.9030   3.9511   3.9827   4.0113
     4.0503   4.0941   4.1431   4.2101   4.2578   4.2667   4.3070   4.3801
     4.4036   4.4658   4.5125   4.5530   4.5937   4.6139   4.6615   4.6809
     4.7269   4.7700

          k = 0.4375 0.7578-0.2308 ( 96082 PWs)   bands (ev):

  -113.7631-113.7564-113.7560-113.5665 -71.2348 -71.2334 -71.2276 -71.2273
   -71.2272 -71.2269 -71.0814 -71.0791 -71.0659 -71.0595 -71.0590 -70.7864
   -23.4292 -20.2008 -18.2358 -18.2300 -18.1691 -18.1348 -17.3382 -17.3336
   -17.3255 -17.3213 -16.9133 -16.9040 -16.8970 -16.8938 -16.7600 -16.7521
   -16.6574 -16.6291 -16.6259 -16.6221 -16.6162 -16.6145 -16.6116 -16.6112
   -16.6065 -16.6011 -16.5745 -16.5717 -16.5272 -16.4597 -15.8175 -15.7774
   -15.6975 -15.5368 -15.5232 -15.5133 -15.4278 -15.3169 -15.2923 -15.0735
   -15.0061 -14.8559 -14.8495 -14.7918 -14.7427 -14.6848 -14.6775 -12.2870
   -12.2537 -12.2022 -12.0095 -11.8777 -10.9041 -10.5537 -10.5462 -10.3142
   -10.1593  -9.3397  -9.0504  -9.0409  -8.8795  -8.7283  -8.5810  -8.3804
    -8.3419  -8.3298  -8.2678  -8.0228  -7.9603  -7.9484  -7.9293  -7.8930
    -7.8558  -7.7723  -7.7555  -7.5159  -7.2396  -7.2041  -7.1909  -7.1807
    -7.0197  -6.6757  -6.6444  -6.5690  -6.5117  -6.4719  -5.9100  -5.8537
    -5.7935  -5.7471  -5.7288  -5.7142  -5.6193  -5.5658  -5.4300  -5.3970
    -5.3676  -5.3406  -5.2962  -5.2626  -5.2538  -5.2054  -5.1217  -5.0713
    -5.0169  -4.9868  -4.9273  -4.8853  -4.8586  -4.8383  -4.5791  -4.5539
    -4.5319  -4.4955  -4.3606  -4.2916  -4.2554  -4.2209  -4.1848  -4.1401
    -4.1056  -4.0523  -3.9761  -3.9309  -3.9056  -3.8602  -3.8307  -3.7262
    -3.5847  -3.5679  -3.5301  -3.5001  -3.4854  -3.4723  -3.4323  -3.4101
    -3.4013  -3.3641  -3.3162  -3.2624  -3.2313  -3.2124  -3.1634  -3.1223
    -3.0889  -3.0248  -2.9533  -2.9274  -2.8719  -2.8408  -2.7950  -2.6696
    -0.4977  -0.3967  -0.3579  -0.3360   0.1574   0.3181   0.4180   0.4283
     0.4342   0.6888   0.7372   0.8398   0.8668   0.9003   0.9259   0.9352
     0.9604   1.0063   1.1008   1.1810   1.2721   1.3213   1.3902   1.4659
     1.5990   1.7094   1.8927   1.9216   1.9974   2.0551   2.1405   2.1749
     2.2140   2.3170   2.4600   2.4744   2.5392   2.6400   2.6994   2.7288
     2.9272   2.9976   3.0213   3.0472   3.0970   3.1381   3.1950   3.2448
     3.2492   3.2859   3.3112   3.3403   3.4024   3.4579   3.5289   3.6039
     3.7059   3.7609   3.7892   3.8463   3.8631   3.8998   3.9405   4.0363
     4.0823   4.1299   4.1700   4.2060   4.2355   4.3211   4.3399   4.4236
     4.4541   4.5307   4.5743   4.5990   4.6401   4.6804   4.7060   4.7576
     4.7789   4.8220

          k = 0.4375-0.2526-0.2308 ( 96066 PWs)   bands (ev):

  -113.7631-113.7564-113.7560-113.5665 -71.2348 -71.2334 -71.2276 -71.2273
   -71.2272 -71.2269 -71.0814 -71.0791 -71.0659 -71.0595 -71.0590 -70.7864
   -23.4292 -20.2008 -18.2520 -18.2195 -18.1525 -18.1449 -17.3384 -17.3342
   -17.3258 -17.3211 -16.9077 -16.9047 -16.8975 -16.8902 -16.7905 -16.7367
   -16.6400 -16.6364 -16.6261 -16.6218 -16.6176 -16.6144 -16.6123 -16.6106
   -16.6059 -16.6011 -16.5785 -16.5681 -16.4970 -16.4884 -15.8171 -15.7630
   -15.7427 -15.5789 -15.4857 -15.4652 -15.4543 -15.3158 -15.2750 -15.0539
   -15.0483 -14.8890 -14.8004 -14.7699 -14.7651 -14.6909 -14.6660 -12.3397
   -12.2455 -12.1851 -11.9360 -11.9304 -10.9042 -10.6142 -10.5093 -10.2348
   -10.2221  -9.3394  -9.0822  -9.0263  -8.8162  -8.8000  -8.5798  -8.3516
    -8.3297  -8.3216  -8.2995  -7.9943  -7.9717  -7.9475  -7.9216  -7.8840
    -7.8589  -7.7490  -7.7315  -7.5130  -7.2814  -7.2387  -7.1534  -7.0847
    -7.0817  -6.6917  -6.6633  -6.5791  -6.5207  -6.4804  -5.9136  -5.9035
    -5.7942  -5.7801  -5.7320  -5.6782  -5.6238  -5.5386  -5.4337  -5.4031
    -5.3741  -5.3407  -5.2903  -5.2781  -5.2564  -5.2122  -5.1184  -5.0685
    -5.0123  -4.9849  -4.9230  -4.8630  -4.8372  -4.8165  -4.5811  -4.5648
    -4.5538  -4.4929  -4.3624  -4.2777  -4.2657  -4.2360  -4.1969  -4.1473
    -4.1102  -4.0612  -3.9807  -3.9225  -3.8938  -3.8470  -3.8200  -3.7212
    -3.5803  -3.5710  -3.5203  -3.5045  -3.4760  -3.4604  -3.4413  -3.4270
    -3.4008  -3.3557  -3.3234  -3.2707  -3.2548  -3.2095  -3.1507  -3.1144
    -3.0457  -3.0268  -2.9646  -2.9229  -2.8853  -2.7987  -2.7619  -2.7307
    -0.4618  -0.4350  -0.3920  -0.3109   0.2429   0.2530   0.4059   0.4530
     0.5424   0.5612   0.7738   0.7956   0.8645   0.8919   0.9151   0.9247
     0.9729   0.9969   1.1813   1.2073   1.2390   1.2757   1.4150   1.4529
     1.6092   1.7612   1.8047   1.9048   1.9433   2.0518   2.1513   2.1739
     2.2312   2.3228   2.4726   2.4797   2.5568   2.6434   2.7002   2.7852
     2.9200   2.9759   3.0093   3.0198   3.0514   3.0790   3.1880   3.2286
     3.2543   3.2776   3.2859   3.3705   3.4031   3.4931   3.5974   3.6720
     3.7184   3.7311   3.8044   3.8511   3.8973   3.9406   3.9481   4.0256
     4.0650   4.1069   4.1329   4.1954   4.2343   4.2872   4.3165   4.3911
     4.4762   4.5208   4.5804   4.6207   4.6395   4.6736   4.7063   4.7556
     4.8182   4.8245

          k =-0.0625 0.1083 0.2308 ( 96006 PWs)   bands (ev):

  -113.7631-113.7564-113.7560-113.5665 -71.2348 -71.2334 -71.2276 -71.2273
   -71.2272 -71.2269 -71.0814 -71.0791 -71.0659 -71.0595 -71.0590 -70.7864
   -23.4292 -20.2008 -18.3104 -18.1586 -18.1520 -18.1391 -17.3466 -17.3425
   -17.3331 -17.3031 -16.9113 -16.9027 -16.8732 -16.8684 -16.8614 -16.6575
   -16.6543 -16.6489 -16.6263 -16.6227 -16.6216 -16.6152 -16.6140 -16.6051
   -16.6045 -16.5994 -16.5871 -16.5155 -16.5099 -16.5001 -15.8551 -15.8172
   -15.8112 -15.7836 -15.3889 -15.3722 -15.3671 -15.2283 -15.2130 -15.0941
   -15.0847 -15.0769 -14.7429 -14.7380 -14.7329 -14.6287 -14.6186 -12.5981
   -12.2362 -11.9766 -11.9632 -11.9427 -10.9100 -10.8008 -10.2982 -10.2866
   -10.2658  -9.3380  -9.1822  -8.9267  -8.9163  -8.9003  -8.5750  -8.2476
    -8.2368  -8.2146  -8.1658  -8.1281  -7.9397  -7.9197  -7.9038  -7.7019
    -7.6426  -7.6370  -7.5740  -7.5288  -7.4805  -7.2396  -7.0267  -6.9980
    -6.9845  -6.8530  -6.8288  -6.8190  -6.7782  -6.5191  -6.0294  -6.0053
    -5.9968  -5.7662  -5.7484  -5.7062  -5.6985  -5.4613  -5.4522  -5.4381
    -5.3656  -5.3505  -5.3363  -5.2403  -5.2259  -5.2140  -5.0252  -5.0244
    -5.0157  -4.9657  -4.9451  -4.7461  -4.7351  -4.6931  -4.5845  -4.5746
    -4.5566  -4.3963  -4.3749  -4.3360  -4.3223  -4.2963  -4.2706  -4.2549
    -4.2118  -4.1788  -4.0860  -3.8890  -3.8508  -3.8414  -3.7727  -3.6981
    -3.6253  -3.6197  -3.5189  -3.5025  -3.4863  -3.4457  -3.4323  -3.4154
    -3.3636  -3.3570  -3.3295  -3.2925  -3.2747  -3.1867  -3.1511  -3.0020
    -2.9390  -2.9228  -2.9121  -2.8259  -2.7925  -2.7474  -2.6076  -2.5665
    -0.7973  -0.3957  -0.3764  -0.3521   0.1516   0.4121   0.4476   0.4638
     0.5158   0.5267   0.5605   0.7509   0.7729   0.7867   0.9422   0.9517
     0.9717   0.9745   0.9958   1.2489   1.3938   1.4155   1.4309   1.5231
     1.5970   1.7401   1.7518   1.8210   1.8684   2.1743   2.2060   2.2779
     2.2934   2.3700   2.5532   2.5848   2.6034   2.6727   2.7486   2.8781
     2.9365   2.9583   2.9714   2.9882   3.0035   3.0439   3.0873   3.1428
     3.2208   3.3096   3.3648   3.4386   3.4537   3.4877   3.5761   3.6007
     3.6824   3.7213   3.8419   3.9050   3.9527   3.9614   3.9949   4.0545
     4.0810   4.1125   4.1370   4.1909   4.2075   4.2515   4.2638   4.3065
     4.3207   4.3520   4.3944   4.4139   4.4362   4.4757   4.5095   4.5795
     4.6234   4.6741

          k = 0.1250 0.0000-0.2308 ( 96006 PWs)   bands (ev):

  -113.7631-113.7564-113.7560-113.5665 -71.2348 -71.2334 -71.2276 -71.2273
   -71.2272 -71.2269 -71.0814 -71.0791 -71.0659 -71.0595 -71.0590 -70.7864
   -23.4292 -20.2008 -18.3104 -18.1584 -18.1521 -18.1392 -17.3470 -17.3418
   -17.3335 -17.3031 -16.9113 -16.9029 -16.8719 -16.8693 -16.8615 -16.6572
   -16.6542 -16.6490 -16.6265 -16.6234 -16.6211 -16.6152 -16.6140 -16.6052
   -16.6043 -16.5994 -16.5872 -16.5145 -16.5126 -16.4986 -15.8523 -15.8206
   -15.8118 -15.7822 -15.3895 -15.3726 -15.3661 -15.2295 -15.2119 -15.0940
   -15.0838 -15.0778 -14.7434 -14.7362 -14.7343 -14.6283 -14.6190 -12.5981
   -12.2362 -11.9780 -11.9600 -11.9447 -10.9099 -10.8009 -10.2952 -10.2912
   -10.2643  -9.3378  -9.1822  -8.9272  -8.9178  -8.8987  -8.5752  -8.2441
    -8.2323  -8.2235  -8.1555  -8.1383  -7.9313  -7.9214  -7.9092  -7.7003
    -7.6456  -7.6357  -7.5747  -7.5284  -7.4804  -7.2394  -7.0271  -6.9983
    -6.9840  -6.8492  -6.8385  -6.8179  -6.7726  -6.5195  -6.0302  -6.0030
    -5.9993  -5.7691  -5.7442  -5.7067  -5.6982  -5.4618  -5.4541  -5.4343
    -5.3680  -5.3547  -5.3313  -5.2377  -5.2301  -5.2136  -5.0338  -5.0179
    -5.0117  -4.9647  -4.9465  -4.7483  -4.7334  -4.6928  -4.5833  -4.5751
    -4.5573  -4.3910  -4.3798  -4.3310  -4.3150  -4.3081  -4.2758  -4.2543
    -4.2154  -4.1717  -4.0857  -3.8883  -3.8504  -3.8427  -3.7707  -3.6980
    -3.6288  -3.6163  -3.5171  -3.5013  -3.4885  -3.4457  -3.4315  -3.4196
    -3.3649  -3.3540  -3.3333  -3.2921  -3.2733  -3.1825  -3.1542  -3.0016
    -2.9409  -2.9220  -2.9107  -2.8192  -2.8033  -2.7453  -2.6061  -2.5678
    -0.7970  -0.4014  -0.3699  -0.3528   0.1522   0.4113   0.4465   0.4747
     0.5101   0.5235   0.5600   0.7484   0.7791   0.7833   0.9468   0.9504
     0.9580   0.9881   0.9925   1.2483   1.3916   1.4213   1.4274   1.5227
     1.5928   1.7447   1.7538   1.8162   1.8712   2.1773   2.2018   2.2786
     2.2955   2.3686   2.5578   2.5753   2.6035   2.6951   2.7274   2.8833
     2.9271   2.9542   2.9695   2.9933   3.0134   3.0379   3.1161   3.1553
     3.1934   3.2887   3.3696   3.4384   3.4558   3.5041   3.5234   3.6397
     3.6862   3.7386   3.8631   3.8985   3.9426   3.9606   3.9902   4.0213
     4.0689   4.1098   4.1639   4.1891   4.2244   4.2384   4.2722   4.2995
     4.3251   4.3495   4.3826   4.4303   4.4515   4.4658   4.4964   4.5607
     4.5957   4.6806

          k =-0.0625 0.2526 0.2308 ( 96096 PWs)   bands (ev):

  -113.7631-113.7564-113.7560-113.5665 -71.2348 -71.2334 -71.2276 -71.2273
   -71.2272 -71.2269 -71.0814 -71.0791 -71.0659 -71.0595 -71.0590 -70.7864
   -23.4292 -20.2008 -18.2964 -18.1707 -18.1564 -18.1399 -17.3434 -17.3410
   -17.3296 -17.3095 -16.9094 -16.8877 -16.8796 -16.8763 -16.8685 -16.6713
   -16.6523 -16.6411 -16.6261 -16.6223 -16.6200 -16.6150 -16.6136 -16.6060
   -16.6056 -16.6003 -16.5857 -16.5321 -16.5122 -16.4916 -15.8412 -15.7974
   -15.7791 -15.7498 -15.4275 -15.3873 -15.3641 -15.2819 -15.2314 -15.0843
   -15.0654 -15.0298 -14.7569 -14.7397 -14.7261 -14.6715 -14.6301 -12.5306
   -12.2365 -12.0220 -11.9720 -11.9260 -10.9078 -10.7570 -10.3433 -10.2883
   -10.2372  -9.3390  -9.1583  -8.9392  -8.9035  -8.8587  -8.5768  -8.3016
    -8.2772  -8.2187  -8.2101  -8.0889  -7.9992  -7.9309  -7.9114  -7.7489
    -7.7021  -7.6774  -7.6385  -7.4977  -7.4654  -7.2396  -7.0858  -7.0124
    -7.0023  -6.7771  -6.7503  -6.7183  -6.6989  -6.5106  -5.9887  -5.9638
    -5.9488  -5.7760  -5.7476  -5.6928  -5.6624  -5.4635  -5.4465  -5.4278
    -5.3931  -5.3529  -5.3106  -5.2490  -5.2353  -5.2119  -5.0452  -5.0302
    -5.0157  -4.9900  -4.9624  -4.7768  -4.7615  -4.7105  -4.5989  -4.5899
    -4.5738  -4.4324  -4.3778  -4.3372  -4.2927  -4.2722  -4.2244  -4.2016
    -4.1777  -4.1549  -4.0438  -3.8778  -3.8441  -3.8225  -3.7642  -3.6710
    -3.6179  -3.6008  -3.5635  -3.5106  -3.4629  -3.4474  -3.4353  -3.4076
    -3.3817  -3.3601  -3.3316  -3.2883  -3.2667  -3.2474  -3.1936  -3.0216
    -2.9716  -2.9393  -2.9191  -2.8795  -2.8125  -2.7547  -2.7147  -2.6232
    -0.6540  -0.4291  -0.3789  -0.3204   0.2445   0.3291   0.4103   0.4571
     0.5327   0.6231   0.6639   0.7129   0.7874   0.8417   0.9100   0.9348
     0.9614   0.9752   0.9897   1.2645   1.3297   1.3599   1.4337   1.5107
     1.6059   1.7352   1.7670   1.8384   1.8757   2.1468   2.1927   2.2258
[...]
    -0.4908  -0.4456  -0.3760  -0.3107   0.1906   0.3555   0.3763   0.4392
     0.4519   0.6983   0.7200   0.8173   0.8481   0.9012   0.9243   0.9430
     0.9570   0.9679   1.0544   1.1607   1.3122   1.3300   1.4268   1.4511
     1.5992   1.7274   1.8525   1.9048   1.9216   2.0935   2.1510   2.1674
     2.2527   2.3354   2.4477   2.5156   2.5974   2.6657   2.6891   2.7794
     2.8971   2.9626   2.9839   3.0124   3.0472   3.0984   3.1719   3.2294
     3.2730   3.3285   3.3538   3.3898   3.4366   3.4591   3.5369   3.6149
     3.6796   3.7438   3.7979   3.8376   3.8818   3.9347   3.9693   4.0178
     4.0957   4.1289   4.1652   4.2143   4.2463   4.3047   4.3438   4.3808
     4.4383   4.4776   4.5145   4.5581   4.5874   4.6183   4.6682   4.6991
     4.7375   4.7970

          k =-0.1250 0.4330 0.2308 ( 96096 PWs)   bands (ev):

  -113.7631-113.7564-113.7560-113.5665 -71.2348 -71.2334 -71.2276 -71.2273
   -71.2272 -71.2269 -71.0814 -71.0791 -71.0659 -71.0595 -71.0590 -70.7864
   -23.4292 -20.2008 -18.2634 -18.2011 -18.1686 -18.1352 -17.3390 -17.3368
   -17.3240 -17.3200 -16.9086 -16.9056 -16.8954 -16.8851 -16.8101 -16.7078
   -16.6581 -16.6313 -16.6249 -16.6224 -16.6164 -16.6144 -16.6128 -16.6081
   -16.6074 -16.6013 -16.5809 -16.5583 -16.5268 -16.4661 -15.8264 -15.7805
   -15.7182 -15.6343 -15.5034 -15.4148 -15.3999 -15.3459 -15.2698 -15.0770
   -15.0179 -14.9362 -14.7868 -14.7683 -14.7372 -14.7068 -14.6564 -12.3852
   -12.2369 -12.1273 -12.0080 -11.8850 -10.9058 -10.6494 -10.4433 -10.3176
   -10.1740  -9.3405  -9.0993  -8.9842  -8.8940  -8.7606  -8.5818  -8.3661
    -8.3430  -8.3026  -8.2133  -8.0753  -8.0024  -7.9416  -7.8959  -7.8649
    -7.8085  -7.7469  -7.7284  -7.5147  -7.3233  -7.2400  -7.1663  -7.0832
    -7.0100  -6.6920  -6.6768  -6.5846  -6.5629  -6.4809  -5.9268  -5.8650
    -5.8499  -5.7955  -5.7254  -5.6786  -5.6416  -5.5192  -5.4399  -5.4185
    -5.3777  -5.3401  -5.2832  -5.2616  -5.2516  -5.2139  -5.0980  -5.0453
    -5.0176  -4.9995  -4.9538  -4.8550  -4.8404  -4.7840  -4.5908  -4.5696
    -4.5521  -4.4775  -4.3651  -4.3132  -4.2620  -4.2216  -4.1750  -4.1544
    -4.1286  -4.1081  -3.9947  -3.8882  -3.8720  -3.8410  -3.7813  -3.7347
    -3.5998  -3.5896  -3.5303  -3.5105  -3.4994  -3.4514  -3.4324  -3.4221
    -3.3920  -3.3525  -3.3200  -3.2837  -3.2631  -3.2148  -3.1649  -3.0794
    -3.0625  -2.9867  -2.9427  -2.9261  -2.9032  -2.8121  -2.7494  -2.6752
    -0.4914  -0.4443  -0.3822  -0.3093   0.1927   0.3554   0.3670   0.4372
     0.4522   0.7031   0.7253   0.8125   0.8466   0.9025   0.9282   0.9455
     0.9565   0.9722   1.0482   1.1609   1.3177   1.3252   1.4355   1.4486
     1.6110   1.7145   1.8492   1.8982   1.9435   2.0979   2.1479   2.1599
     2.2530   2.3303   2.4508   2.5086   2.5336   2.6347   2.6968   2.8394
     2.9180   2.9503   2.9916   3.0264   3.0519   3.1072   3.1651   3.2366
     3.2917   3.3208   3.3613   3.3936   3.4366   3.4726   3.5604   3.6008
     3.6221   3.7351   3.7957   3.8129   3.8432   3.9236   3.9778   4.0556
     4.0801   4.1204   4.1700   4.2204   4.2768   4.3112   4.3329   4.3859
     4.4289   4.4718   4.5327   4.5458   4.5928   4.6319   4.6951   4.7117
     4.7493   4.7876

          k =-0.3125-0.1804 0.2308 ( 96048 PWs)   bands (ev):

  -113.7631-113.7564-113.7560-113.5665 -71.2348 -71.2334 -71.2276 -71.2273
   -71.2272 -71.2269 -71.0814 -71.0791 -71.0659 -71.0595 -71.0590 -70.7864
   -23.4292 -20.2008 -18.2806 -18.1883 -18.1554 -18.1419 -17.3424 -17.3359
   -17.3284 -17.3150 -16.9076 -16.8956 -16.8918 -16.8789 -16.8428 -16.6930
   -16.6419 -16.6410 -16.6269 -16.6232 -16.6185 -16.6142 -16.6128 -16.6072
   -16.6056 -16.6016 -16.5837 -16.5511 -16.5018 -16.4920 -15.8234 -15.7839
   -15.7676 -15.6873 -15.4467 -15.4340 -15.3494 -15.3378 -15.2488 -15.0685
   -15.0584 -14.9758 -14.7607 -14.7559 -14.7183 -14.7119 -14.6437 -12.4578
   -12.2367 -12.0874 -11.9483 -11.9314 -10.9063 -10.7061 -10.4075 -10.2519
   -10.2375  -9.3385  -9.1310  -8.9725  -8.8541  -8.8424  -8.5801  -8.3291
    -8.3028  -8.2597  -8.2528  -8.0576  -7.9883  -7.9476  -7.9254  -7.7920
    -7.7758  -7.7131  -7.6859  -7.5057  -7.4013  -7.2381  -7.0736  -7.0679
    -7.0472  -6.7293  -6.6977  -6.6348  -6.6175  -6.5021  -5.9465  -5.9317
    -5.9001  -5.7906  -5.7380  -5.6735  -5.6398  -5.4872  -5.4415  -5.4151
    -5.3911  -5.3608  -5.2942  -5.2608  -5.2434  -5.2139  -5.0685  -5.0384
    -5.0153  -4.9993  -4.9552  -4.8121  -4.7898  -4.7566  -4.6027  -4.5855
    -4.5704  -4.4550  -4.3699  -4.3097  -4.2846  -4.2503  -4.2168  -4.1755
    -4.1573  -4.1038  -4.0152  -3.8706  -3.8533  -3.8221  -3.7583  -3.6824
    -3.6249  -3.5994  -3.5561  -3.5207  -3.4628  -3.4538  -3.4335  -3.4136
    -3.3892  -3.3609  -3.3263  -3.2848  -3.2655  -3.2368  -3.1974  -3.0453
    -3.0078  -2.9753  -2.9315  -2.9116  -2.8608  -2.7769  -2.7338  -2.6886
    -0.5335  -0.4399  -0.4183  -0.2914   0.2871   0.3094   0.3366   0.4784
     0.5654   0.5994   0.7265   0.7674   0.7740   0.8890   0.8978   0.9190
     0.9474   0.9864   1.0609   1.2679   1.2798   1.3094   1.4276   1.4926
     1.5966   1.7458   1.7895   1.8668   1.9117   2.1024   2.1559   2.1875
     2.2704   2.3630   2.4546   2.5345   2.5863   2.6400   2.7112   2.8556
     2.9075   2.9367   2.9721   3.0136   3.0515   3.0948   3.1311   3.1628
     3.2415   3.3262   3.3795   3.4192   3.4718   3.5339   3.5465   3.6407
     3.6884   3.7268   3.8035   3.8374   3.9032   3.9379   3.9582   4.0012
     4.0366   4.1264   4.1522   4.1807   4.2376   4.2750   4.3175   4.3876
     4.4149   4.4770   4.4911   4.5526   4.5882   4.6186   4.6394   4.6954
     4.7432   4.7643

          k = 0.0000-0.3608-0.2308 ( 96048 PWs)   bands (ev):

  -113.7631-113.7564-113.7560-113.5665 -71.2348 -71.2334 -71.2276 -71.2273
   -71.2272 -71.2269 -71.0814 -71.0791 -71.0659 -71.0595 -71.0590 -70.7864
   -23.4292 -20.2008 -18.2806 -18.1887 -18.1552 -18.1417 -17.3408 -17.3388
   -17.3265 -17.3155 -16.9071 -16.8983 -16.8902 -16.8778 -16.8436 -16.6937
   -16.6434 -16.6402 -16.6254 -16.6221 -16.6183 -16.6145 -16.6132 -16.6075
   -16.6062 -16.6011 -16.5836 -16.5501 -16.5002 -16.4943 -15.8302 -15.7763
   -15.7703 -15.6861 -15.4492 -15.4289 -15.3534 -15.3341 -15.2502 -15.0671
   -15.0604 -14.9758 -14.7613 -14.7559 -14.7183 -14.7111 -14.6436 -12.4585
   -12.2371 -12.0872 -11.9504 -11.9285 -10.9068 -10.7058 -10.4073 -10.2480
   -10.2414  -9.3399  -9.1305  -8.9701  -8.8509  -8.8448  -8.5788  -8.3404
    -8.2929  -8.2658  -8.2518  -8.0506  -7.9985  -7.9458  -7.9210  -7.8001
    -7.7727  -7.7069  -7.6858  -7.5072  -7.4002  -7.2395  -7.0730  -7.0660
    -7.0462  -6.7299  -6.6985  -6.6343  -6.6245  -6.4967  -5.9497  -5.9242
    -5.9014  -5.7878  -5.7434  -5.6739  -5.6408  -5.4779  -5.4479  -5.4235
    -5.3928  -5.3511  -5.2907  -5.2609  -5.2447  -5.2152  -5.0754  -5.0357
    -5.0121  -4.9994  -4.9607  -4.8140  -4.7921  -4.7474  -4.6009  -4.5943
    -4.5646  -4.4576  -4.3749  -4.3146  -4.2814  -4.2434  -4.1994  -4.1727
    -4.1547  -4.1241  -4.0154  -3.8736  -3.8524  -3.8271  -3.7596  -3.6896
    -3.6219  -3.5997  -3.5551  -3.5202  -3.4615  -3.4500  -3.4329  -3.4132
    -3.3907  -3.3569  -3.3278  -3.2877  -3.2586  -3.2367  -3.2003  -3.0463
    -3.0112  -2.9713  -2.9356  -2.9064  -2.8554  -2.7751  -2.7351  -2.6878
    -0.5353  -0.4349  -0.4200  -0.2950   0.2954   0.3118   0.3248   0.4696
     0.5618   0.6003   0.7310   0.7667   0.7806   0.8823   0.9061   0.9180
     0.9484   0.9858   1.0582   1.2637   1.2862   1.3101   1.4282   1.4929
     1.6079   1.7512   1.7777   1.8588   1.9077   2.1075   2.1581   2.1856
     2.2704   2.3590   2.4625   2.5430   2.5647   2.6463   2.7086   2.8725
     2.9054   2.9272   2.9677   3.0074   3.0365   3.0811   3.1097   3.1846
     3.2783   3.3136   3.3865   3.4252   3.4930   3.5242   3.5424   3.6375
     3.7011   3.7346   3.7784   3.8041   3.8753   3.9475   3.9847   4.0027
     4.0370   4.1026   4.1565   4.2086   4.2523   4.2842   4.3308   4.3430
     4.4354   4.4780   4.5170   4.5477   4.5763   4.6442   4.6596   4.7075
     4.7272   4.7738

          k =-0.4375 0.7578 0.2308 ( 96082 PWs)   bands (ev):

  -113.7631-113.7564-113.7560-113.5665 -71.2348 -71.2334 -71.2276 -71.2273
   -71.2272 -71.2269 -71.0814 -71.0791 -71.0659 -71.0595 -71.0590 -70.7864
   -23.4292 -20.2008 -18.2389 -18.2258 -18.1707 -18.1344 -17.3380 -17.3339
   -17.3256 -17.3211 -16.9137 -16.9049 -16.8956 -16.8930 -16.7605 -16.7516
   -16.6575 -16.6288 -16.6262 -16.6231 -16.6164 -16.6145 -16.6110 -16.6088
   -16.6068 -16.6026 -16.5746 -16.5721 -16.5275 -16.4600 -15.8174 -15.7771
   -15.6980 -15.5406 -15.5282 -15.5052 -15.4216 -15.3212 -15.2932 -15.0733
   -15.0054 -14.8570 -14.8478 -14.7922 -14.7428 -14.6873 -14.6761 -12.2854
   -12.2524 -12.2047 -12.0099 -11.8773 -10.9051 -10.5516 -10.5450 -10.3157
   -10.1600  -9.3393  -9.0458  -9.0411  -8.8821  -8.7323  -8.5845  -8.3764
    -8.3489  -8.3276  -8.2614  -8.0264  -7.9660  -7.9471  -7.9260  -7.8881
    -7.8544  -7.7749  -7.7551  -7.5186  -7.2383  -7.2049  -7.1912  -7.1809
    -7.0190  -6.6685  -6.6500  -6.5568  -6.5137  -6.4762  -5.9085  -5.8506
    -5.7993  -5.7542  -5.7358  -5.7124  -5.6251  -5.5614  -5.4284  -5.4027
    -5.3655  -5.3402  -5.2955  -5.2676  -5.2468  -5.1988  -5.1178  -5.0710
    -5.0110  -4.9826  -4.9205  -4.8817  -4.8648  -4.8489  -4.5836  -4.5591
    -4.5278  -4.4996  -4.3613  -4.2823  -4.2493  -4.2304  -4.1823  -4.1393
    -4.1033  -4.0691  -3.9956  -3.9189  -3.8984  -3.8644  -3.7867  -3.7471
    -3.5859  -3.5716  -3.5302  -3.5012  -3.4830  -3.4715  -3.4374  -3.4117
    -3.3991  -3.3671  -3.3119  -3.2658  -3.2395  -3.2132  -3.1612  -3.1183
    -3.0766  -3.0224  -2.9527  -2.9290  -2.8776  -2.8418  -2.7992  -2.6708
    -0.5005  -0.4020  -0.3536  -0.3344   0.1550   0.3157   0.4201   0.4322
     0.4349   0.6964   0.7413   0.8378   0.8616   0.8915   0.9205   0.9424
     0.9676   1.0117   1.0989   1.1808   1.2683   1.3187   1.3995   1.4628
     1.5939   1.7089   1.8861   1.9551   2.0163   2.0397   2.1427   2.1676
     2.2102   2.2996   2.4412   2.4802   2.5115   2.5772   2.6776   2.8523
     2.9235   3.0007   3.0286   3.0728   3.1045   3.1510   3.2042   3.2345
     3.2589   3.2932   3.3008   3.3357   3.4000   3.4866   3.5192   3.6026
     3.7150   3.7366   3.7784   3.8254   3.8296   3.8599   3.9627   4.0334
     4.0942   4.1040   4.1649   4.2101   4.2535   4.3026   4.3421   4.4124
     4.4847   4.5337   4.5841   4.6104   4.6339   4.6733   4.7040   4.7423
     4.7722   4.8260

          k = 0.8750 0.0000-0.2308 ( 96082 PWs)   bands (ev):

  -113.7631-113.7564-113.7560-113.5665 -71.2348 -71.2334 -71.2276 -71.2273
   -71.2272 -71.2269 -71.0814 -71.0791 -71.0659 -71.0595 -71.0590 -70.7864
   -23.4292 -20.2008 -18.2380 -18.2271 -18.1704 -18.1343 -17.3374 -17.3349
   -17.3249 -17.3213 -16.9142 -16.9039 -16.8997 -16.8895 -16.7598 -16.7534
   -16.6574 -16.6301 -16.6244 -16.6223 -16.6151 -16.6142 -16.6124 -16.6093
   -16.6077 -16.6017 -16.5754 -16.5705 -16.5277 -16.4603 -15.8227 -15.7739
   -15.6991 -15.5379 -15.5269 -15.5044 -15.4212 -15.3204 -15.2955 -15.0734
   -15.0057 -14.8560 -14.8502 -14.7917 -14.7423 -14.6828 -14.6801 -12.2928
   -12.2444 -12.2065 -12.0097 -11.8765 -10.9056 -10.5521 -10.5442 -10.3154
   -10.1603  -9.3409  -9.0487  -9.0354  -8.8818  -8.7302  -8.5833  -8.3694
    -8.3626  -8.3314  -8.2586  -8.0271  -7.9647  -7.9459  -7.9245  -7.8909
    -7.8566  -7.7712  -7.7533  -7.5194  -7.2401  -7.2012  -7.1944  -7.1780
    -7.0181  -6.6766  -6.6449  -6.5580  -6.5250  -6.4616  -5.9103  -5.8548
    -5.7905  -5.7587  -5.7387  -5.7053  -5.6233  -5.5605  -5.4323  -5.4157
    -5.3642  -5.3348  -5.2846  -5.2688  -5.2433  -5.2083  -5.1238  -5.0660
    -5.0109  -4.9886  -4.9155  -4.8940  -4.8750  -4.8236  -4.5871  -4.5523
    -4.5322  -4.5026  -4.3644  -4.2897  -4.2414  -4.2233  -4.1728  -4.1372
    -4.1110  -4.0747  -3.9959  -3.9208  -3.8990  -3.8488  -3.8209  -3.7393
    -3.5859  -3.5721  -3.5304  -3.4999  -3.4794  -3.4724  -3.4356  -3.4129
    -3.3939  -3.3702  -3.3139  -3.2604  -3.2387  -3.2160  -3.1577  -3.1187
    -3.0833  -3.0238  -2.9506  -2.9156  -2.8711  -2.8474  -2.8018  -2.6690
    -0.4994  -0.4022  -0.3533  -0.3381   0.1577   0.3223   0.3964   0.4329
     0.4402   0.6961   0.7397   0.8370   0.8616   0.9062   0.9210   0.9388
     0.9650   1.0111   1.0977   1.1773   1.2721   1.3165   1.3980   1.4688
     1.6037   1.7065   1.8916   1.9219   2.0218   2.0486   2.1447   2.1725
     2.2099   2.3024   2.4525   2.4706   2.5068   2.5640   2.6840   2.8465
     2.9206   2.9873   3.0384   3.0690   3.1086   3.1385   3.2002   3.2506
     3.2586   3.2882   3.3051   3.3292   3.4226   3.4688   3.5824   3.5921
     3.6621   3.7063   3.7953   3.8025   3.8616   3.9009   3.9616   4.0162
     4.0834   4.1136   4.1476   4.2202   4.2593   4.3169   4.3511   4.3780
     4.4914   4.5338   4.5744   4.5975   4.6339   4.6711   4.7158   4.7422
     4.7927   4.8424

          k =-0.4375-0.2526 0.2308 ( 96066 PWs)   bands (ev):

  -113.7631-113.7564-113.7560-113.5665 -71.2348 -71.2334 -71.2276 -71.2273
   -71.2272 -71.2269 -71.0814 -71.0791 -71.0659 -71.0595 -71.0590 -70.7864
   -23.4292 -20.2008 -18.2526 -18.2178 -18.1559 -18.1426 -17.3384 -17.3343
   -17.3255 -17.3212 -16.9083 -16.9056 -16.8960 -16.8891 -16.7908 -16.7364
   -16.6388 -16.6375 -16.6264 -16.6231 -16.6172 -16.6144 -16.6115 -16.6083
   -16.6061 -16.6031 -16.5786 -16.5685 -16.4980 -16.4882 -15.8171 -15.7609
   -15.7449 -15.5807 -15.4848 -15.4740 -15.4390 -15.3196 -15.2766 -15.0546
   -15.0465 -14.8890 -14.7993 -14.7696 -14.7662 -14.6924 -14.6658 -12.3387
   -12.2442 -12.1870 -11.9419 -11.9245 -10.9053 -10.6126 -10.5073 -10.2369
   -10.2224  -9.3390  -9.0802  -9.0233  -8.8160  -8.8072  -8.5837  -8.3521
    -8.3358  -8.3091  -8.3009  -8.0001  -7.9691  -7.9494  -7.9215  -7.8769
    -7.8573  -7.7526  -7.7312  -7.5158  -7.2824  -7.2378  -7.1540  -7.0836
    -7.0811  -6.6829  -6.6687  -6.5663  -6.5266  -6.4821  -5.9122  -5.9012
    -5.8032  -5.7847  -5.7339  -5.6819  -5.6265  -5.5376  -5.4330  -5.4091
    -5.3624  -5.3494  -5.3010  -5.2652  -5.2556  -5.2074  -5.1082  -5.0680
    -5.0030  -4.9847  -4.9195  -4.8615  -4.8400  -4.8262  -4.5896  -4.5705
    -4.5486  -4.4944  -4.3605  -4.2752  -4.2651  -4.2337  -4.1932  -4.1466
    -4.1163  -4.0731  -3.9995  -3.9071  -3.8836  -3.8574  -3.7748  -3.7397
    -3.5832  -3.5779  -3.5204  -3.5029  -3.4778  -3.4630  -3.4413  -3.4237
    -3.4003  -3.3574  -3.3203  -3.2707  -3.2662  -3.2150  -3.1480  -3.1023
    -3.0411  -3.0219  -2.9614  -2.9239  -2.8915  -2.8050  -2.7694  -2.7276
    -0.4629  -0.4424  -0.3892  -0.3077   0.2353   0.2550   0.4083   0.4563
     0.5450   0.5665   0.7765   0.7985   0.8571   0.8885   0.9133   0.9229
     0.9821   1.0002   1.1791   1.2116   1.2330   1.2767   1.4206   1.4509
     1.6014   1.7565   1.8085   1.9250   1.9689   2.0416   2.1534   2.1632
     2.2257   2.3093   2.4481   2.4848   2.5170   2.5944   2.6770   2.8933
     2.9517   2.9743   3.0058   3.0350   3.0886   3.1129   3.1882   3.2239
     3.2430   3.2622   3.3023   3.3617   3.4011   3.4963   3.5563   3.6750
     3.7209   3.7794   3.7885   3.8270   3.8648   3.9267   3.9496   3.9651
     4.0709   4.0911   4.1538   4.1835   4.2226   4.3031   4.3384   4.3661
     4.5073   4.5278   4.5813   4.6246   4.6499   4.6757   4.7281   4.7536
     4.7935   4.8444

          k = 0.0000-0.5052-0.2308 ( 96066 PWs)   bands (ev):

  -113.7631-113.7564-113.7560-113.5665 -71.2348 -71.2334 -71.2276 -71.2273
   -71.2272 -71.2269 -71.0814 -71.0791 -71.0659 -71.0595 -71.0590 -70.7864
   -23.4292 -20.2008 -18.2524 -18.2185 -18.1557 -18.1424 -17.3377 -17.3355
   -17.3241 -17.3220 -16.9094 -16.9038 -16.8997 -16.8860 -16.7913 -16.7371
   -16.6410 -16.6367 -16.6245 -16.6221 -16.6159 -16.6144 -16.6126 -16.6091
   -16.6074 -16.6018 -16.5788 -16.5675 -16.4962 -16.4904 -15.8226 -15.7561
   -15.7475 -15.5781 -15.4860 -15.4689 -15.4399 -15.3194 -15.2785 -15.0529
   -15.0488 -14.8894 -14.8010 -14.7711 -14.7633 -14.6909 -14.6667 -12.3414
   -12.2431 -12.1866 -11.9439 -11.9215 -10.9059 -10.6124 -10.5070 -10.2331
   -10.2262  -9.3409  -9.0795  -9.0208  -8.8158  -8.8052  -8.5819  -8.3600
    -8.3304  -8.3211  -8.2953  -7.9961  -7.9739  -7.9452  -7.9211  -7.8811
    -7.8588  -7.7478  -7.7297  -7.5168  -7.2810  -7.2397  -7.1535  -7.0826
    -7.0786  -6.6903  -6.6666  -6.5645  -6.5399  -6.4670  -5.9162  -5.8996
    -5.7940  -5.7916  -5.7350  -5.6808  -5.6228  -5.5331  -5.4417  -5.4193
    -5.3682  -5.3386  -5.2817  -5.2694  -5.2566  -5.2159  -5.1190  -5.0585
    -5.0060  -4.9867  -4.9224  -4.8633  -4.8512  -4.8040  -4.5931  -4.5678
    -4.5490  -4.4983  -4.3647  -4.2787  -4.2671  -4.2181  -4.1798  -4.1431
    -4.1211  -4.0894  -3.9972  -3.9103  -3.8808  -3.8493  -3.8086  -3.7317
    -3.5822  -3.5756  -3.5184  -3.5042  -3.4766  -3.4602  -3.4402  -3.4259
    -3.3991  -3.3588  -3.3223  -3.2695  -3.2582  -3.2160  -3.1449  -3.1106
    -3.0444  -3.0181  -2.9586  -2.9203  -2.8839  -2.8041  -2.7701  -2.7272
    -0.4585  -0.4459  -0.3897  -0.3108   0.2423   0.2564   0.3915   0.4546
     0.5442   0.5659   0.7755   0.8003   0.8590   0.8920   0.9174   0.9249
     0.9784   0.9996   1.1761   1.2049   1.2379   1.2773   1.4213   1.4569
     1.6108   1.7650   1.7970   1.8991   1.9730   2.0493   2.1543   2.1668
     2.2305   2.3104   2.4583   2.4761   2.5127   2.5808   2.6843   2.8871
     2.9358   2.9664   3.0193   3.0339   3.0691   3.1199   3.1814   3.2185
     3.2572   3.2752   3.2972   3.3530   3.4289   3.5194   3.5781   3.6465
     3.6974   3.7241   3.8152   3.8253   3.8896   3.9431   3.9526   3.9766
     4.0558   4.1049   4.1498   4.1682   4.1941   4.2950   4.3544   4.4258
     4.4808   4.5547   4.5654   4.6070   4.6267   4.6938   4.7079   4.7550
     4.7768   4.7994

     the Fermi energy is    -1.8516 ev
     (compare with:    -1.8595 eV, computed in scf)

     Writing all to output data dir ./test.save/ :
     XML data file, pseudopotentials, collected wavefunctions
 
     init_run     :      1.00s CPU      1.18s WALL (       1 calls)
     electrons    :  25330.13s CPU  25843.97s WALL (       1 calls)

     Called by init_run:
     wfcinit      :      0.00s CPU      0.00s WALL (       1 calls)
     potinit      :      0.05s CPU      0.09s WALL (       1 calls)
     hinit0       :      0.05s CPU      0.07s WALL (       1 calls)

     Called by electrons:
     c_bands      :  25330.12s CPU  25843.95s WALL (       1 calls)
     v_of_rho     :      0.03s CPU      0.04s WALL (       1 calls)
     newd         :      0.30s CPU      0.40s WALL (       1 calls)

     Called by c_bands:
     init_us_2    :      0.96s CPU      0.99s WALL (      96 calls)
     ccgdiagg     :  25174.12s CPU  25369.09s WALL (     576 calls)
     wfcrot       :    153.93s CPU    155.79s WALL (     576 calls)

     Called by *cgdiagg:
     h_psi        :  10134.93s CPU  10219.17s WALL ( 1761572 calls)
     s_psi        :   7943.20s CPU   8009.06s WALL ( 3522568 calls)

     Called by h_psi:
     h_psi:calbec :   4741.17s CPU   4781.70s WALL ( 1761572 calls)
     vloc_psi     :   1330.06s CPU   1344.19s WALL ( 1761572 calls)
     add_vuspsi   :   4041.86s CPU   4072.90s WALL ( 1761572 calls)
     hs_1psi      :  13990.74s CPU  14103.19s WALL ( 1760996 calls)
     s_1psi       :   8198.33s CPU   8259.83s WALL ( 1760996 calls)

     General routines
     calbec       :   8936.28s CPU   9008.38s WALL ( 3522568 calls)
     fft          :      0.02s CPU      0.03s WALL (      13 calls)
     ffts         :      0.00s CPU      0.00s WALL (       1 calls)
     fftw         :    797.73s CPU    806.29s WALL ( 3809992 calls)
     interpolate  :      0.00s CPU      0.01s WALL (       1 calls)
     davcio       :      0.05s CPU    310.21s WALL (     192 calls)
 
     Parallel routines
 
     PWSCF        :  25346.86s CPU  25870.93s WALL

 
   This run was terminated on:  16:35:27  19Feb2026            

=------------------------------------------------------------------------------=
   JOB DONE.
=------------------------------------------------------------------------------=
