
     Program PWSCF v.7.3.1 starts on 19Feb2026 at  9: 6:29 

     This program is part of the open-source Quantum ESPRESSO suite
     for quantum simulation of materials; please cite
         "P. Giannozzi et al., J. Phys.:Condens. Matter 21 395502 (2009);
         "P. Giannozzi et al., J. Phys.:Condens. Matter 29 465901 (2017);
         "P. Giannozzi et al., J. Chem. Phys. 152 154105 (2020);
          URL http://www.quantum-espresso.org", 
     in publications or presentations arising from this work. More details at
     http://www.quantum-espresso.org/quote

     Parallel version (MPI & OpenMP), running on      64 processor cores
     Number of MPI processes:                64
     Threads/MPI process:                     1

     MPI processes distributed on     1 nodes
     400739 MiB available memory on the printing compute node when the environment starts
 
     Waiting for input...
     Reading input from standard input
Warning: card &CELL ignored
Warning: card   PRESS = 0.0, ignored
Warning: card / ignored

     Current dimensions of program PWSCF are:
     Max number of different atomic species (ntypx) = 10
     Max number of k-points (npk) =  40000
     Max angular momentum in pseudopotentials (lmaxx) =  4

     IMPORTANT: XC functional enforced from input :
     Exchange-correlation= PBE
                           (   1   4   3   4   0   0   0)
     Any further DFT definition will be discarded
     Please, verify this is what you really want

 
     R & G space division:  proc/nbgrp/npool/nimage =      64
     Subspace diagonalization in iterative solution of the eigenvalue problem:
     one sub-group per band group will be used
     ELPA distributed-memory algorithm (size of sub-group:  3*  3 procs)

 
     Parallelization info
     --------------------
     sticks:   dense  smooth     PW     G-vecs:    dense   smooth      PW
     Min         180      90     24                33956    12002    1671
     Max         181      91     26                33969    12012    1680
     Sum       11557    5773   1555              2173495   768463  107317
 
     Using Slab Decomposition
 


     bravais-lattice index     =            4
     lattice parameter (alat)  =      22.8869  a.u.
     unit-cell volume          =   22488.0312 (a.u.)^3
     number of atoms/cell      =           49
     number of atomic types    =            8
     number of electrons       =       336.00
     number of Kohn-Sham states=          250
     kinetic-energy cutoff     =      40.0000  Ry
     charge density cutoff     =     320.0000  Ry
     scf convergence threshold =      1.0E-08
     mixing beta               =       0.3000
     number of iterations used =            8  plain     mixing
     Exchange-correlation= PBE
                           (   1   4   3   4   0   0   0)

     celldm(1)=  22.886890  celldm(2)=   0.000000  celldm(3)=   2.166010
     celldm(4)=   0.000000  celldm(5)=   0.000000  celldm(6)=   0.000000

     crystal axes: (cart. coord. in units of alat)
               a(1) = (   1.000000   0.000000   0.000000 )  
               a(2) = (  -0.500000   0.866025   0.000000 )  
               a(3) = (   0.000000   0.000000   2.166010 )  

     reciprocal axes: (cart. coord. in units 2 pi/alat)
               b(1) = (  1.000000  0.577350  0.000000 )  
               b(2) = (  0.000000  1.154701  0.000000 )  
               b(3) = (  0.000000  0.000000  0.461678 )  


     PseudoPot. # 1 for Cu read from file:
     ./cu_pbe_v1.2.uspp.F.UPF
     MD5 check sum: 6e991ff952a84172a2a52a1c1e996048
     Pseudo is Ultrasoft + core correction, Zval = 19.0
     Generated by new atomic code, or converted to UPF format
     Using radial grid of  867 points,  6 beta functions with: 
                l(1) =   0
                l(2) =   0
                l(3) =   1
                l(4) =   1
                l(5) =   2
                l(6) =   2
     Q(r) pseudized with  8 coefficients,  rinner =    1.150   1.150   1.150
                                                       1.150   1.150

     PseudoPot. # 2 for In read from file:
     ./in_pbe_v1.4.uspp.F.UPF
     MD5 check sum: 90777abd96fbb83f2e67db2a40c566b9
     Pseudo is Ultrasoft + core correction, Zval = 13.0
     Generated by new atomic code, or converted to UPF format
     Using radial grid of  889 points,  6 beta functions with: 
                l(1) =   0
                l(2) =   0
                l(3) =   1
                l(4) =   1
                l(5) =   2
                l(6) =   2
     Q(r) pseudized with  6 coefficients,  rinner =    1.400   1.400   1.400
                                                       1.400   1.400

     PseudoPot. # 3 for P  read from file:
     ./p_pbe_v1.5.uspp.F.UPF
     MD5 check sum: eb82b2c351da08c5f5f8709277dc7ee5
     Pseudo is Ultrasoft + core correction, Zval =  5.0
     Generated by new atomic code, or converted to UPF format
     Using radial grid of  903 points,  6 beta functions with: 
                l(1) =   0
                l(2) =   0
                l(3) =   1
                l(4) =   1
                l(5) =   2
                l(6) =   2
     Q(r) pseudized with  8 coefficients,  rinner =    1.300   1.300   1.300
                                                       1.300   1.300

     PseudoPot. # 4 for S  read from file:
     ./s_pbe_v1.4.uspp.F.UPF
     MD5 check sum: 88d86576ff6df21479756cfb9bdac1df
     Pseudo is Ultrasoft + core correction, Zval =  6.0
     Generated by new atomic code, or converted to UPF format
     Using radial grid of  907 points,  6 beta functions with: 
                l(1) =   0
                l(2) =   0
                l(3) =   1
                l(4) =   1
                l(5) =   2
                l(6) =   2
     Q(r) pseudized with  8 coefficients,  rinner =    1.300   1.300   1.300
                                                       1.300   1.300

     PseudoPot. # 5 for C  read from file:
     ./c_pbe_v1.2.uspp.F.UPF
     MD5 check sum: d1aef80898a10debaa0f26306b886e00
     Pseudo is Ultrasoft + core correction, Zval =  4.0
     Generated by new atomic code, or converted to UPF format
     Using radial grid of  721 points,  4 beta functions with: 
                l(1) =   0
                l(2) =   0
                l(3) =   1
                l(4) =   1
     Q(r) pseudized with  8 coefficients,  rinner =    1.100   1.100   1.100


     PseudoPot. # 6 for O  read from file:
     ./o_pbe_v1.2.uspp.F.UPF
     MD5 check sum: 734c27235a0248c51dbae37a1fbe46ec
     Pseudo is Ultrasoft + core correction, Zval =  6.0
     Generated by new atomic code, or converted to UPF format
     Using radial grid of  737 points,  5 beta functions with: 
                l(1) =   0
                l(2) =   0
                l(3) =   1
                l(4) =   1
                l(5) =   2
     Q(r) pseudized with  8 coefficients,  rinner =    0.900   0.900   0.900
                                                       0.900   0.900

     PseudoPot. # 7 for N  read from file:
     ./n_pbe_v1.2.uspp.F.UPF
     MD5 check sum: 95339753478d7afb44899504a8723017
     Pseudo is Ultrasoft + core correction, Zval =  5.0
     Generated by new atomic code, or converted to UPF format
     Using radial grid of  729 points,  4 beta functions with: 
                l(1) =   0
                l(2) =   0
                l(3) =   1
                l(4) =   1
     Q(r) pseudized with  8 coefficients,  rinner =    0.900   0.900   0.900


     PseudoPot. # 8 for H  read from file:
     ./h_pbe_v1.4.uspp.F.UPF
     MD5 check sum: 761ae9a214b05c3daf00ab9f6b793d6f
     Pseudo is Ultrasoft, Zval =  1.0
     Generated by new atomic code, or converted to UPF format
     Using radial grid of  615 points,  2 beta functions with: 
                l(1) =   0
                l(2) =   0
     Q(r) pseudized with  8 coefficients,  rinner =    0.700

     atomic species   valence    mass     pseudopotential
     Cu               19.00    63.54600     Cu( 1.00)
     In               13.00   114.81800     In( 1.00)
     P                 5.00    30.97400     P ( 1.00)
     S                 6.00    32.06500     S ( 1.00)
     C                 4.00    12.01100     C ( 1.00)
     O                 6.00    15.99900     O ( 1.00)
     N                 5.00    14.00670     N ( 1.00)
     H                 1.00     1.00780     H ( 1.00)

     No symmetry found



   Cartesian axes

     site n.     atom                  positions (alat units)
         1        Cu     tau(   1) = (   0.2581525   0.1363175   1.2031560  )
         2        Cu     tau(   2) = (   0.0081285   0.5703514   1.1637024  )
         3        Cu     tau(   3) = (   0.7575730   0.1369269   1.1637177  )
         4        Cu     tau(   4) = (   0.5087359   0.5707849   1.1634843  )
         5        In     tau(   5) = (   1.0091772  -0.0062371   1.0355603  )
         6        In     tau(   6) = (   0.7585770   0.4267451   1.0345866  )
         7        In     tau(   7) = (   0.5058436  -0.0063656   1.0364681  )
         8        In     tau(   8) = (   0.2581042   0.4254872   1.0325337  )
         9        P      tau(   9) = (   0.0079220   0.2816323   0.9576513  )
        10        P      tau(  10) = (  -0.2418791   0.7149385   0.9596100  )
        11        P      tau(  11) = (   0.5087618   0.2819974   0.9586019  )
        12        P      tau(  12) = (   0.2577114   0.7155565   0.9596820  )
        13        P      tau(  13) = (   0.0076888   0.2811604   1.1435897  )
        14        P      tau(  14) = (  -0.2413509   0.7147342   1.1456461  )
        15        P      tau(  15) = (   0.5088161   0.2823516   1.1446222  )
        16        P      tau(  16) = (   0.2579001   0.7146516   1.1454258  )
        17        S      tau(  17) = (  -0.0807049   0.1463116   0.9146194  )
        18        S      tau(  18) = (  -0.3310475   0.5801052   0.9157819  )
        19        S      tau(  19) = (   0.4198448   0.1473481   0.9148803  )
        20        S      tau(  20) = (   0.1692057   0.5804598   0.9151320  )
        21        S      tau(  21) = (   0.4190703   0.7064948   0.9158713  )
        22        S      tau(  22) = (   0.6701649   0.2727597   0.9152296  )
        23        S      tau(  23) = (  -0.0804835   0.7052011   0.9160571  )
        24        S      tau(  24) = (   0.1690469   0.2722622   0.9135197  )
        25        S      tau(  25) = (  -0.3139937   0.8592738   0.9156382  )
        26        S      tau(  26) = (  -0.0645239   0.4262019   0.9141776  )
        27        S      tau(  27) = (   0.1844216   0.8599146   0.9172652  )
        28        S      tau(  28) = (   0.4366244   0.4267577   0.9148485  )
        29        S      tau(  29) = (   0.3498391   0.8481477   1.1969995  )
        30        S      tau(  30) = (   0.6005401   0.4157761   1.1964013  )
        31        S      tau(  31) = (  -0.1474944   0.8456632   1.1991073  )
        32        S      tau(  32) = (   0.0998313   0.4149275   1.1947112  )
        33        S      tau(  33) = (   0.0748939   0.1348291   1.1973122  )
        34        S      tau(  34) = (  -0.1721311   0.5673844   1.1958869  )
        35        S      tau(  35) = (   0.5774086   0.1359909   1.1972614  )
        36        S      tau(  36) = (   0.3282863   0.5678973   1.1953363  )
        37        S      tau(  37) = (  -0.4029760   0.7277469   1.1971858  )
        38        S      tau(  38) = (  -0.1541254   0.2944823   1.1948482  )
        39        S      tau(  39) = (   0.0966331   0.7271077   1.1976463  )
        40        S      tau(  40) = (   0.3464640   0.2962880   1.1941101  )
        41        C      tau(  41) = (   0.2020696   0.1939403   1.4628549  )
        42        C      tau(  42) = (   0.1182547   0.1592302   1.5485365  )
        43        O      tau(  43) = (   0.2448599   0.1253805   1.3998501  )
        44        N      tau(  44) = (   0.2263269   0.3030996   1.4580317  )
        45        H      tau(  45) = (   0.1859595   0.3592422   1.5057861  )
        46        H      tau(  46) = (   0.2772708   0.3310933   1.3967046  )
        47        H      tau(  47) = (   0.1490133   0.0854019   1.5916328  )
        48        H      tau(  48) = (   0.0417268   0.1355596   1.5051405  )
        49        H      tau(  49) = (   0.0990111   0.2242777   1.6090664  )

     -------------------------------------------------
     Parameters for Dispersion (Grimme-D2) Correction:
     -------------------------------------------------
       atom      VdW radius       C_6     

        Cu         2.952        374.666
        In         3.160       1294.678
        P          3.222        271.980
        S          3.180        193.230
        C          2.744         60.710
        O          2.536         24.284
        N          2.640         42.670
        H          1.892          4.857

     number of k points=    54  Gaussian smearing, width (Ry)=  0.0100
                       cart. coord. in units 2pi/alat
        k(    1) = (   0.0833333   0.1443376  -0.2308392), wk =   0.0370370
        k(    2) = (   0.0833333   0.3367877  -0.2308392), wk =   0.0370370
        k(    3) = (   0.0833333   0.5292377  -0.2308392), wk =   0.0370370
        k(    4) = (   0.0833333  -0.4330127  -0.2308392), wk =   0.0370370
        k(    5) = (   0.0833333  -0.2405626  -0.2308392), wk =   0.0370370
        k(    6) = (   0.0833333  -0.0481125  -0.2308392), wk =   0.0370370
        k(    7) = (   0.2500000   0.4330127  -0.2308392), wk =   0.0370370
        k(    8) = (   0.2500000   0.6254628  -0.2308392), wk =   0.0370370
        k(    9) = (   0.2500000  -0.3367877  -0.2308392), wk =   0.0370370
        k(   10) = (   0.2500000  -0.1443376  -0.2308392), wk =   0.0370370
        k(   11) = (   0.4166667   0.7216878  -0.2308392), wk =   0.0370370
        k(   12) = (   0.4166667  -0.2405626  -0.2308392), wk =   0.0370370
        k(   13) = (  -0.0833333   0.1443376   0.2308392), wk =   0.0370370
        k(   14) = (   0.1666667   0.0000000  -0.2308392), wk =   0.0370370
        k(   15) = (  -0.0833333   0.3367877   0.2308392), wk =   0.0370370
        k(   16) = (  -0.2500000   0.2405626  -0.2308392), wk =   0.0370370
        k(   17) = (   0.3333333   0.0962250  -0.2308392), wk =   0.0370370
        k(   18) = (  -0.2500000  -0.2405626   0.2308392), wk =   0.0370370
        k(   19) = (   0.3333333  -0.0962250   0.2308392), wk =   0.0370370
        k(   20) = (  -0.0833333   0.5292377   0.2308392), wk =   0.0370370
        k(   21) = (  -0.4166667   0.3367877  -0.2308392), wk =   0.0370370
        k(   22) = (   0.5000000   0.1924501  -0.2308392), wk =   0.0370370
        k(   23) = (  -0.4166667  -0.3367877   0.2308392), wk =   0.0370370
        k(   24) = (   0.5000000  -0.1924501   0.2308392), wk =   0.0370370
        k(   25) = (  -0.0833333  -0.4330127   0.2308392), wk =   0.0370370
        k(   26) = (   0.4166667  -0.1443376  -0.2308392), wk =   0.0370370
        k(   27) = (  -0.3333333  -0.2886751  -0.2308392), wk =   0.0370370
        k(   28) = (   0.4166667   0.1443376   0.2308392), wk =   0.0370370
        k(   29) = (  -0.3333333   0.2886751   0.2308392), wk =   0.0370370
        k(   30) = (  -0.0833333  -0.2405626   0.2308392), wk =   0.0370370
        k(   31) = (   0.2500000  -0.0481125  -0.2308392), wk =   0.0370370
        k(   32) = (  -0.1666667  -0.1924501  -0.2308392), wk =   0.0370370
        k(   33) = (   0.2500000   0.0481125   0.2308392), wk =   0.0370370
        k(   34) = (  -0.1666667   0.1924501   0.2308392), wk =   0.0370370
        k(   35) = (  -0.0833333  -0.0481125   0.2308392), wk =   0.0370370
        k(   36) = (   0.0000000  -0.0962250  -0.2308392), wk =   0.0370370
        k(   37) = (  -0.2500000   0.4330127   0.2308392), wk =   0.0370370
        k(   38) = (   0.5000000   0.0000000  -0.2308392), wk =   0.0370370
        k(   39) = (  -0.2500000   0.6254628   0.2308392), wk =   0.0370370
        k(   40) = (  -0.4166667   0.5292377  -0.2308392), wk =   0.0370370
        k(   41) = (   0.6666667   0.0962250  -0.2308392), wk =   0.0370370
        k(   42) = (  -0.4166667  -0.5292377   0.2308392), wk =   0.0370370
        k(   43) = (   0.6666667  -0.0962250   0.2308392), wk =   0.0370370
        k(   44) = (  -0.2500000  -0.3367877   0.2308392), wk =   0.0370370
        k(   45) = (   0.4166667   0.0481125  -0.2308392), wk =   0.0370370
        k(   46) = (  -0.1666667  -0.3849002  -0.2308392), wk =   0.0370370
        k(   47) = (   0.4166667  -0.0481125   0.2308392), wk =   0.0370370
        k(   48) = (  -0.1666667   0.3849002   0.2308392), wk =   0.0370370
        k(   49) = (  -0.2500000  -0.1443376   0.2308392), wk =   0.0370370
        k(   50) = (   0.0000000  -0.2886751  -0.2308392), wk =   0.0370370
        k(   51) = (  -0.4166667   0.7216878   0.2308392), wk =   0.0370370
        k(   52) = (   0.8333333   0.0000000  -0.2308392), wk =   0.0370370
        k(   53) = (  -0.4166667  -0.2405626   0.2308392), wk =   0.0370370
        k(   54) = (   0.0000000  -0.4811252  -0.2308392), wk =   0.0370370

     Dense  grid:  2173495 G-vectors     FFT dimensions: ( 135, 135, 288)

     Smooth grid:   768463 G-vectors     FFT dimensions: (  96,  96, 200)

     Estimated max dynamical RAM per process >     480.28 MB

     Estimated total dynamical RAM >      30.02 GB

     Initial potential from superposition of free atoms

     starting charge     325.9977, renormalised to     336.0000

     negative rho (up, down):  4.636E-03 0.000E+00
     Starting wfcs are  237 randomized atomic wfcs +   13 random wfcs

     total cpu time spent up to now is       18.5 secs

     per-process dynamical memory:   100.6 Mb

     Self-consistent Calculation

     iteration #  1     ecut=    40.00 Ry     beta= 0.30
     Davidson diagonalization with overlap
     ethr =  1.00E-02,  avg # of iterations =  8.1

     negative rho (up, down):  2.838E-03 0.000E+00

     total cpu time spent up to now is      102.9 secs

     total energy              =   -2933.72588959 Ry
     estimated scf accuracy    <       4.78744214 Ry

     iteration #  2     ecut=    40.00 Ry     beta= 0.30
     Davidson diagonalization with overlap
     ethr =  1.42E-03,  avg # of iterations =  2.0

     negative rho (up, down):  2.234E-03 0.000E+00

     total cpu time spent up to now is      155.8 secs

     total energy              =   -2934.09185520 Ry
     estimated scf accuracy    <       0.78776104 Ry

     iteration #  3     ecut=    40.00 Ry     beta= 0.30
     Davidson diagonalization with overlap
     ethr =  2.34E-04,  avg # of iterations = 12.1

     negative rho (up, down):  2.112E-03 0.000E+00

     total cpu time spent up to now is      250.3 secs

     total energy              =   -2934.16465236 Ry
     estimated scf accuracy    <       0.33408157 Ry

     iteration #  4     ecut=    40.00 Ry     beta= 0.30
     Davidson diagonalization with overlap
     ethr =  9.94E-05,  avg # of iterations = 13.2

     negative rho (up, down):  2.684E-03 0.000E+00

     total cpu time spent up to now is      323.9 secs

     total energy              =   -2934.18683107 Ry
     estimated scf accuracy    <       0.09449706 Ry

     iteration #  5     ecut=    40.00 Ry     beta= 0.30
     Davidson diagonalization with overlap
     c_bands:  1 eigenvalues not converged
     c_bands:  1 eigenvalues not converged
     ethr =  2.81E-05,  avg # of iterations = 13.1

     negative rho (up, down):  3.127E-03 0.000E+00

     total cpu time spent up to now is      402.8 secs

     total energy              =   -2934.19024024 Ry
     estimated scf accuracy    <       0.02388496 Ry

     iteration #  6     ecut=    40.00 Ry     beta= 0.30
     Davidson diagonalization with overlap
     c_bands:  1 eigenvalues not converged
     c_bands:  1 eigenvalues not converged
     c_bands:  1 eigenvalues not converged
     c_bands:  1 eigenvalues not converged
     c_bands:  1 eigenvalues not converged
     c_bands:  1 eigenvalues not converged
     c_bands:  1 eigenvalues not converged
     c_bands:  1 eigenvalues not converged
     ethr =  7.11E-06,  avg # of iterations = 12.3

     negative rho (up, down):  3.398E-03 0.000E+00

     total cpu time spent up to now is      479.2 secs

     total energy              =   -2934.19228676 Ry
     estimated scf accuracy    <       0.00473659 Ry

     iteration #  7     ecut=    40.00 Ry     beta= 0.30
     Davidson diagonalization with overlap
     c_bands:  1 eigenvalues not converged
     c_bands:  1 eigenvalues not converged
     c_bands:  1 eigenvalues not converged
     c_bands:  1 eigenvalues not converged
     c_bands:  1 eigenvalues not converged
     c_bands:  1 eigenvalues not converged
     c_bands:  1 eigenvalues not converged
     c_bands:  1 eigenvalues not converged
     ethr =  1.41E-06,  avg # of iterations = 14.1

     negative rho (up, down):  3.429E-03 0.000E+00

     total cpu time spent up to now is      563.2 secs

     total energy              =   -2934.19264587 Ry
     estimated scf accuracy    <       0.00072848 Ry

     iteration #  8     ecut=    40.00 Ry     beta= 0.30
     Davidson diagonalization with overlap
     ethr =  2.17E-07,  avg # of iterations =  6.0

     negative rho (up, down):  3.444E-03 0.000E+00

     total cpu time spent up to now is      631.7 secs

     total energy              =   -2934.19287350 Ry
     estimated scf accuracy    <       0.00014203 Ry

     iteration #  9     ecut=    40.00 Ry     beta= 0.30
     Davidson diagonalization with overlap
     ethr =  4.23E-08,  avg # of iterations =  2.6

     negative rho (up, down):  3.463E-03 0.000E+00

     total cpu time spent up to now is      690.6 secs

     total energy              =   -2934.19289865 Ry
     estimated scf accuracy    <       0.00004320 Ry

     iteration # 10     ecut=    40.00 Ry     beta= 0.30
     Davidson diagonalization with overlap
     ethr =  1.29E-08,  avg # of iterations =  2.2

     negative rho (up, down):  3.492E-03 0.000E+00

     total cpu time spent up to now is      741.7 secs

     total energy              =   -2934.19290427 Ry
     estimated scf accuracy    <       0.00000695 Ry

     iteration # 11     ecut=    40.00 Ry     beta= 0.30
     Davidson diagonalization with overlap
     ethr =  2.07E-09,  avg # of iterations =  4.9

     negative rho (up, down):  3.518E-03 0.000E+00

     total cpu time spent up to now is      807.6 secs

     total energy              =   -2934.19290675 Ry
     estimated scf accuracy    <       0.00000159 Ry

     iteration # 12     ecut=    40.00 Ry     beta= 0.30
     Davidson diagonalization with overlap
     ethr =  4.74E-10,  avg # of iterations =  3.5

     negative rho (up, down):  3.541E-03 0.000E+00

     total cpu time spent up to now is      867.1 secs

     total energy              =   -2934.19290733 Ry
     estimated scf accuracy    <       0.00000040 Ry

     iteration # 13     ecut=    40.00 Ry     beta= 0.30
     Davidson diagonalization with overlap
     ethr =  1.20E-10,  avg # of iterations =  3.6

     negative rho (up, down):  3.559E-03 0.000E+00

     total cpu time spent up to now is      927.6 secs

     total energy              =   -2934.19290754 Ry
     estimated scf accuracy    <       0.00000013 Ry

     iteration # 14     ecut=    40.00 Ry     beta= 0.30
     Davidson diagonalization with overlap
     ethr =  3.93E-11,  avg # of iterations =  4.3

     negative rho (up, down):  3.573E-03 0.000E+00

     total cpu time spent up to now is      984.5 secs

     total energy              =   -2934.19290763 Ry
     estimated scf accuracy    <       0.00000003 Ry

     iteration # 15     ecut=    40.00 Ry     beta= 0.30
     Davidson diagonalization with overlap
     ethr =  1.02E-11,  avg # of iterations =  5.5

     negative rho (up, down):  3.607E-03 0.000E+00

     total cpu time spent up to now is     1050.1 secs

     End of self-consistent calculation

          k = 0.0833 0.1443-0.2308 ( 95992 PWs)   bands (ev):

  -113.7631-113.7566-113.7564-113.5659 -71.2348 -71.2335 -71.2279 -71.2276
   -71.2275 -71.2272 -71.0809 -71.0785 -71.0659 -71.0596 -71.0595 -70.7859
   -23.4292 -20.2008 -18.3070 -18.1576 -18.1572 -18.1391 -17.3460 -17.3419
   -17.3321 -17.3048 -16.9102 -16.8962 -16.8767 -16.8711 -16.8640 -16.6591
   -16.6551 -16.6462 -16.6263 -16.6231 -16.6208 -16.6148 -16.6139 -16.6054
   -16.6043 -16.5997 -16.5867 -16.5181 -16.5127 -16.4974 -15.8505 -15.8108
   -15.8028 -15.7788 -15.3952 -15.3791 -15.3672 -15.2369 -15.2214 -15.0923
   -15.0752 -15.0688 -14.7461 -14.7365 -14.7334 -14.6391 -14.6211 -12.5816
   -12.2363 -11.9781 -11.9764 -11.9366 -10.9095 -10.7903 -10.3030 -10.2924
   -10.2589  -9.3382  -9.1764  -8.9214  -8.9152  -8.8966  -8.5755  -8.2673
    -8.2389  -8.2171  -8.1786  -8.1195  -7.9472  -7.9291  -7.9072  -7.7116
    -7.6585  -7.6486  -7.5916  -7.5151  -7.4833  -7.2394  -7.0474  -7.0010
    -6.9858  -6.8230  -6.8165  -6.7916  -6.7552  -6.5163  -6.0207  -5.9962
    -5.9845  -5.7663  -5.7535  -5.7010  -5.6868  -5.4666  -5.4499  -5.4301
    -5.3726  -5.3588  -5.3253  -5.2462  -5.2216  -5.2155  -5.0395  -5.0186
    -5.0063  -4.9654  -4.9630  -4.7562  -4.7318  -4.6988  -4.5884  -4.5822
    -4.5668  -4.3987  -4.3873  -4.3343  -4.3117  -4.2942  -4.2599  -4.2345
    -4.2136  -4.1612  -4.0745  -3.8864  -3.8494  -3.8292  -3.7693  -3.6927
    -3.6263  -3.6129  -3.5279  -3.5034  -3.4803  -3.4444  -3.4406  -3.4073
    -3.3670  -3.3567  -3.3330  -3.2961  -3.2677  -3.2108  -3.1643  -3.0063
    -2.9489  -2.9247  -2.9110  -2.8349  -2.8055  -2.7438  -2.6384  -2.5850
    -0.7585  -0.4090  -0.3701  -0.3444   0.1766   0.3850   0.4454   0.4617
     0.5294   0.5568   0.5747   0.7421   0.7828   0.7935   0.9281   0.9532
     0.9691   0.9776   0.9864   1.2512   1.3744   1.4063   1.4315   1.5216
     1.5948   1.7342   1.7624   1.8214   1.8751   2.1671   2.2126   2.2532
     2.2742   2.3707   2.5539   2.5787   2.6154   2.6688   2.7304   2.8788
     2.9167   2.9423   2.9641   2.9941   3.0159   3.0592   3.0995   3.1489
     3.2527   3.2976   3.3987   3.4159   3.4574   3.4862   3.5463   3.6582
     3.6749   3.7178   3.8525   3.8780   3.9050   3.9664   3.9840   4.0545
     4.0896   4.1138   4.1291   4.1710   4.2198   4.2576   4.2789   4.3153
     4.3446   4.3614   4.3969   4.4288   4.4630   4.5041   4.5433   4.5834
     4.6377   4.6659

          k = 0.0833 0.3368-0.2308 ( 96032 PWs)   bands (ev):

  -113.7631-113.7566-113.7564-113.5659 -71.2348 -71.2335 -71.2279 -71.2276
   -71.2275 -71.2272 -71.0809 -71.0785 -71.0659 -71.0596 -71.0595 -70.7859
   -23.4292 -20.2008 -18.2829 -18.1831 -18.1612 -18.1385 -17.3413 -17.3390
   -17.3266 -17.3147 -16.9075 -16.8978 -16.8869 -16.8777 -16.8481 -16.6850
   -16.6534 -16.6356 -16.6255 -16.6221 -16.6186 -16.6143 -16.6131 -16.6073
   -16.6058 -16.6009 -16.5839 -16.5451 -16.5172 -16.4811 -15.8331 -15.7891
   -15.7531 -15.7031 -15.4538 -15.4125 -15.3567 -15.3251 -15.2500 -15.0824
   -15.0387 -14.9931 -14.7672 -14.7451 -14.7169 -14.7094 -14.6414 -12.4690
   -12.2369 -12.0671 -11.9825 -11.9092 -10.9070 -10.7133 -10.3869 -10.2928
   -10.2120  -9.3397  -9.1345  -8.9571  -8.8896  -8.8238  -8.5785  -8.3406
    -8.2838  -8.2588  -8.2464  -8.0556  -7.9911  -7.9637  -7.9134  -7.7950
    -7.7548  -7.7072  -7.6827  -7.5056  -7.4088  -7.2395  -7.1186  -7.0300
    -7.0248  -6.7266  -6.6923  -6.6612  -6.6370  -6.4990  -5.9545  -5.9208
    -5.9165  -5.7850  -5.7494  -5.6734  -5.6418  -5.4755  -5.4462  -5.4243
    -5.3914  -5.3590  -5.2909  -5.2614  -5.2350  -5.2151  -5.0693  -5.0368
    -5.0147  -4.9978  -4.9652  -4.8126  -4.7838  -4.7436  -4.6002  -4.5948
    -4.5677  -4.4466  -4.3813  -4.3123  -4.2862  -4.2464  -4.2095  -4.1743
    -4.1598  -4.1210  -4.0209  -3.8735  -3.8472  -3.8201  -3.7600  -3.6815
    -3.6279  -3.6003  -3.5620  -3.5202  -3.4735  -3.4573  -3.4292  -3.4079
    -3.3776  -3.3637  -3.3262  -3.2881  -3.2628  -3.2367  -3.1957  -3.0455
    -2.9956  -2.9714  -2.9413  -2.8967  -2.8535  -2.7966  -2.7146  -2.6714
    -0.5519  -0.4559  -0.3852  -0.3047   0.2700   0.3081   0.3603   0.4687
     0.5329   0.6365   0.7239   0.7603   0.7834   0.8736   0.8905   0.9257
     0.9429   0.9922   1.0431   1.2365   1.2771   1.3721   1.4138   1.5007
     1.6027   1.7324   1.8035   1.8551   1.9085   2.1134   2.1616   2.1842
     2.2673   2.3684   2.4685   2.5434   2.5868   2.6369   2.7026   2.8777
     2.9037   2.9303   2.9523   2.9933   3.0609   3.0922   3.1285   3.1724
     3.2533   3.3177   3.3891   3.4542   3.5199   3.5362   3.5603   3.6129
     3.6573   3.7137   3.7454   3.7890   3.8956   3.9377   3.9548   4.0090
     4.0911   4.1290   4.1781   4.2315   4.2555   4.2872   4.3081   4.3615
     4.3973   4.4545   4.4848   4.5182   4.5606   4.6268   4.6395   4.6902
     4.7267   4.7603

          k = 0.0833 0.5292-0.2308 ( 96076 PWs)   bands (ev):

  -113.7631-113.7566-113.7564-113.5659 -71.2348 -71.2335 -71.2279 -71.2276
   -71.2275 -71.2272 -71.0809 -71.0785 -71.0659 -71.0596 -71.0595 -70.7859
   -23.4292 -20.2008 -18.2461 -18.2221 -18.1635 -18.1375 -17.3375 -17.3351
   -17.3243 -17.3217 -16.9119 -16.9035 -16.8995 -16.8878 -16.7791 -16.7421
   -16.6499 -16.6319 -16.6244 -16.6220 -16.6155 -16.6142 -16.6124 -16.6092
   -16.6074 -16.6017 -16.5773 -16.5688 -16.5166 -16.4704 -15.8229 -15.7698
   -15.7190 -15.5633 -15.5033 -15.4828 -15.4332 -15.3179 -15.2877 -15.0685
   -15.0217 -14.8798 -14.8179 -14.7837 -14.7512 -14.6870 -14.6726 -12.3178
   -12.2447 -12.1961 -11.9823 -11.8921 -10.9058 -10.5897 -10.5193 -10.2847
   -10.1813  -9.3410  -9.0668  -9.0259  -8.8581  -8.7577  -8.5824  -8.3631
    -8.3506  -8.3227  -8.2832  -7.9928  -7.9770  -7.9409  -7.9259  -7.9033
    -7.8496  -7.7592  -7.7412  -7.5182  -7.2506  -7.2398  -7.1658  -7.1462
    -7.0316  -6.6827  -6.6534  -6.5610  -6.5337  -6.4642  -5.9160  -5.8767
    -5.7919  -5.7786  -5.7349  -5.6930  -5.6186  -5.5473  -5.4351  -5.4185
    -5.3655  -5.3405  -5.2818  -5.2714  -5.2457  -5.2129  -5.1215  -5.0673
    -5.0059  -4.9856  -4.9234  -4.8745  -4.8598  -4.8165  -4.5897  -4.5606
    -4.5450  -4.4967  -4.3657  -4.2839  -4.2499  -4.2213  -4.1796  -4.1398
    -4.1159  -4.0801  -3.9975  -3.9169  -3.8886  -3.8479  -3.8160  -3.7357
    -3.5857  -3.5707  -3.5291  -3.5020  -3.4754  -3.4676  -3.4410  -3.4166
    -3.3888  -3.3705  -3.3151  -3.2642  -3.2510  -3.2216  -3.1486  -3.1023
    -3.0707  -3.0157  -2.9588  -2.9226  -2.8868  -2.8197  -2.7884  -2.6934
    -0.4854  -0.4185  -0.3720  -0.3223   0.1887   0.2982   0.3944   0.4497
     0.4749   0.6398   0.7600   0.8197   0.8690   0.8979   0.9150   0.9314
     0.9556   1.0154   1.1345   1.2151   1.2400   1.2962   1.4023   1.4720
     1.6066   1.7268   1.8542   1.9103   2.0029   2.0400   2.1482   2.1726
     2.2171   2.3080   2.4545   2.4815   2.5115   2.5558   2.6821   2.8744
     2.9263   2.9755   3.0275   3.0465   3.1005   3.1443   3.1945   3.2282
     3.2478   3.2727   3.3014   3.3351   3.4330   3.5082   3.5866   3.6206
     3.6662   3.7115   3.8032   3.8316   3.8772   3.9005   3.9384   4.0131
     4.0777   4.1141   4.1378   4.1987   4.2226   4.3096   4.3542   4.3841
     4.5138   4.5550   4.5828   4.6036   4.6211   4.6815   4.7156   4.7383
     4.7895   4.8083

          k = 0.0833-0.4330-0.2308 ( 96090 PWs)   bands (ev):

  -113.7631-113.7566-113.7564-113.5659 -71.2348 -71.2335 -71.2279 -71.2276
   -71.2275 -71.2272 -71.0809 -71.0785 -71.0659 -71.0596 -71.0595 -70.7859
   -23.4292 -20.2008 -18.2654 -18.2022 -18.1624 -18.1379 -17.3390 -17.3369
   -17.3243 -17.3196 -16.9070 -16.9050 -16.8958 -16.8835 -16.8143 -16.7110
   -16.6506 -16.6333 -16.6248 -16.6222 -16.6166 -16.6143 -16.6128 -16.6081
   -16.6071 -16.6013 -16.5812 -16.5591 -16.5164 -16.4746 -15.8261 -15.7760
   -15.7360 -15.6336 -15.4918 -15.4232 -15.3996 -15.3390 -15.2664 -15.0712
   -15.0337 -14.9339 -14.7807 -14.7629 -14.7447 -14.7045 -14.6550 -12.3935
   -12.2376 -12.1328 -11.9824 -11.8983 -10.9060 -10.6561 -10.4499 -10.2887
   -10.1916  -9.3406  -9.1031  -8.9897  -8.8717  -8.7813  -8.5813  -8.3601
    -8.3365  -8.2982  -8.2368  -8.0474  -8.0081  -7.9421  -7.9028  -7.8522
    -7.8146  -7.7378  -7.7198  -7.5140  -7.3340  -7.2400  -7.1388  -7.0902
    -7.0219  -6.7008  -6.6813  -6.5876  -6.5656  -6.4818  -5.9330  -5.8819
    -5.8490  -5.7941  -5.7302  -5.6740  -5.6388  -5.5125  -5.4424  -5.4205
    -5.3784  -5.3405  -5.2848  -5.2608  -5.2558  -5.2151  -5.1001  -5.0405
    -5.0146  -4.9998  -4.9493  -4.8466  -4.8336  -4.7793  -4.5935  -4.5757
    -4.5542  -4.4791  -4.3665  -4.3099  -4.2649  -4.2234  -4.1778  -4.1563
    -4.1323  -4.1098  -3.9974  -3.8847  -3.8716  -3.8412  -3.7770  -3.7308
    -3.5977  -3.5915  -3.5307  -3.5073  -3.4909  -3.4490  -3.4325  -3.4253
    -3.3998  -3.3479  -3.3239  -3.2857  -3.2618  -3.2158  -3.1692  -3.0798
    -3.0541  -2.9768  -2.9461  -2.9253  -2.8937  -2.8006  -2.7496  -2.6941
    -0.4802  -0.4498  -0.3993  -0.3020   0.2167   0.3323   0.3635   0.4492
     0.4796   0.6784   0.7161   0.8167   0.8314   0.8941   0.9192   0.9451
     0.9617   0.9758   1.0691   1.1946   1.2939   1.3152   1.4364   1.4538
     1.6122   1.7312   1.8218   1.8893   1.9377   2.0909   2.1523   2.1620
     2.2564   2.3314   2.4494   2.5083   2.5327   2.6341   2.6971   2.8596
     2.9232   2.9441   2.9893   3.0254   3.0417   3.0983   3.1523   3.2319
     3.2839   3.3168   3.3480   3.3969   3.4519   3.4752   3.5605   3.6233
     3.6520   3.7532   3.7979   3.8192   3.8515   3.9300   3.9746   4.0385
     4.0883   4.0945   4.1391   4.2050   4.2688   4.2912   4.3339   4.3925
     4.4418   4.4923   4.5455   4.5612   4.5870   4.6608   4.7020   4.7270
     4.7537   4.7929

          k = 0.0833-0.2406-0.2308 ( 96078 PWs)   bands (ev):

  -113.7631-113.7566-113.7564-113.5659 -71.2348 -71.2335 -71.2279 -71.2276
   -71.2275 -71.2272 -71.0809 -71.0785 -71.0659 -71.0596 -71.0595 -70.7859
   -23.4292 -20.2008 -18.2971 -18.1692 -18.1573 -18.1395 -17.3435 -17.3410
   -17.3298 -17.3091 -16.9095 -16.8872 -16.8789 -16.8770 -16.8683 -16.6687
   -16.6549 -16.6403 -16.6261 -16.6222 -16.6200 -16.6149 -16.6135 -16.6058
   -16.6055 -16.6001 -16.5856 -16.5296 -16.5156 -16.4900 -15.8423 -15.7982
   -15.7779 -15.7544 -15.4276 -15.3806 -15.3681 -15.2795 -15.2302 -15.0873
   -15.0611 -15.0347 -14.7572 -14.7367 -14.7280 -14.6692 -14.6293 -12.5342
   -12.2365 -12.0148 -11.9796 -11.9235 -10.9078 -10.7594 -10.3353 -10.2982
   -10.2339  -9.3390  -9.1596  -8.9344  -8.9121  -8.8568  -8.5769  -8.2977
    -8.2784  -8.2155  -8.2075  -8.0909  -7.9991  -7.9321  -7.9089  -7.7463
    -7.6966  -7.6773  -7.6360  -7.4973  -7.4681  -7.2397  -7.0909  -7.0062
    -6.9982  -6.7788  -6.7553  -6.7232  -6.7030  -6.5116  -5.9911  -5.9665
    -5.9500  -5.7751  -5.7476  -5.6938  -5.6641  -5.4628  -5.4459  -5.4300
    -5.3909  -5.3538  -5.3112  -5.2482  -5.2349  -5.2116  -5.0443  -5.0289
    -5.0184  -4.9895  -4.9605  -4.7758  -4.7602  -4.7084  -4.5983  -4.5875
    -4.5751  -4.4308  -4.3770  -4.3380  -4.2941  -4.2727  -4.2289  -4.2026
    -4.1775  -4.1568  -4.0458  -3.8782  -3.8426  -3.8251  -3.7638  -3.6721
    -3.6178  -3.6007  -3.5620  -3.5087  -3.4661  -3.4454  -3.4388  -3.4042
    -3.3830  -3.3599  -3.3312  -3.2889  -3.2680  -3.2463  -3.1906  -3.0215
    -2.9681  -2.9371  -2.9177  -2.8784  -2.8163  -2.7515  -2.7111  -2.6184
    -0.6608  -0.4317  -0.3690  -0.3267   0.2403   0.3279   0.4266   0.4486
     0.5275   0.6288   0.6541   0.7110   0.7960   0.8334   0.9105   0.9418
     0.9615   0.9735   0.9835   1.2636   1.3252   1.3715   1.4324   1.5114
     1.6058   1.7321   1.7704   1.8374   1.8731   2.1495   2.1984   2.2265
     2.2508   2.3704   2.5236   2.5895   2.6132   2.6698   2.7325   2.8686
     2.8850   2.9250   2.9684   2.9808   3.0215   3.0464   3.0995   3.1399
     3.2389   3.3527   3.3832   3.4392   3.4856   3.5351   3.5923   3.6365
     3.6821   3.7253   3.7793   3.8298   3.8777   3.9213   4.0082   4.0511
     4.0919   4.1274   4.1735   4.2141   4.2235   4.2429   4.2715   4.3181
     4.3580   4.4129   4.4306   4.4797   4.5426   4.5756   4.5971   4.6368
     4.6546   4.7352

          k = 0.0833-0.0481-0.2308 ( 96016 PWs)   bands (ev):

  -113.7631-113.7566-113.7564-113.5659 -71.2348 -71.2335 -71.2279 -71.2276
   -71.2275 -71.2272 -71.0809 -71.0785 -71.0659 -71.0596 -71.0595 -70.7859
   -23.4292 -20.2008 -18.3121 -18.1575 -18.1512 -18.1388 -17.3472 -17.3424
   -17.3336 -17.3021 -16.9116 -16.9060 -16.8708 -16.8672 -16.8598 -16.6568
   -16.6528 -16.6508 -16.6262 -16.6231 -16.6214 -16.6151 -16.6140 -16.6049
   -16.6041 -16.5992 -16.5872 -16.5140 -16.5097 -16.5000 -15.8567 -15.8201
   -15.8185 -15.7847 -15.3845 -15.3717 -15.3648 -15.2229 -15.2092 -15.0941
   -15.0903 -15.0812 -14.7409 -14.7383 -14.7330 -14.6228 -14.6173 -12.6069
   -12.2363 -11.9748 -11.9568 -11.9465 -10.9104 -10.8061 -10.2961 -10.2828
   -10.2697  -9.3379  -9.1851  -8.9294  -8.9136  -8.9060  -8.5750  -8.2374
    -8.2301  -8.2185  -8.1535  -8.1381  -7.9266  -7.9205  -7.9032  -7.6958
    -7.6368  -7.6297  -7.5642  -7.5356  -7.4789  -7.2398  -7.0086  -7.0020
    -6.9816  -6.8661  -6.8478  -6.8318  -6.7876  -6.5203  -6.0350  -6.0095
    -6.0040  -5.7673  -5.7456  -5.7082  -5.7042  -5.4614  -5.4541  -5.4375
    -5.3634  -5.3501  -5.3387  -5.2365  -5.2285  -5.2141  -5.0280  -5.0185
    -5.0159  -4.9604  -4.9418  -4.7438  -4.7328  -4.6920  -4.5805  -4.5717
    -4.5503  -4.3909  -4.3704  -4.3292  -4.3257  -4.3062  -4.2799  -4.2676
    -4.2177  -4.1797  -4.0928  -3.8913  -3.8514  -3.8459  -3.7740  -3.7015
    -3.6297  -3.6203  -3.5122  -3.5011  -3.4911  -3.4468  -3.4290  -3.4244
    -3.3636  -3.3519  -3.3311  -3.2885  -3.2770  -3.1677  -3.1464  -3.0000
    -2.9351  -2.9209  -2.9114  -2.8157  -2.7944  -2.7460  -2.5877  -2.5591
    -0.8187  -0.3944  -0.3756  -0.3550   0.1375   0.4307   0.4418   0.4765
     0.5005   0.5121   0.5490   0.7551   0.7694   0.7828   0.9493   0.9512
     0.9678   0.9818   0.9996   1.2476   1.4013   1.4267   1.4282   1.5241
     1.5944   1.7447   1.7497   1.8182   1.8700   2.1795   2.1973   2.2936
     2.3081   2.3672   2.5542   2.5739   2.5955   2.6848   2.7451   2.8849
     2.9380   2.9624   2.9809   2.9875   3.0056   3.0322   3.1098   3.1504
     3.2079   3.2960   3.3636   3.4287   3.4524   3.4961   3.5447   3.5940
     3.6779   3.7246   3.8787   3.8989   3.9657   3.9759   4.0232   4.0472
     4.0610   4.1013   4.1581   4.1856   4.2191   4.2453   4.2644   4.2842
     4.2982   4.3468   4.3752   4.4188   4.4395   4.4604   4.4777   4.5610
     4.5978   4.6479

          k = 0.2500 0.4330-0.2308 ( 96066 PWs)   bands (ev):

  -113.7631-113.7566-113.7564-113.5659 -71.2348 -71.2335 -71.2279 -71.2276
   -71.2275 -71.2272 -71.0809 -71.0785 -71.0659 -71.0596 -71.0595 -70.7859
   -23.4292 -20.2008 -18.2532 -18.1963 -18.1895 -18.1302 -17.3386 -17.3358
   -17.3232 -17.3209 -16.9141 -16.9056 -16.8943 -16.8908 -16.7901 -16.6945
   -16.6872 -16.6277 -16.6252 -16.6225 -16.6163 -16.6138 -16.6119 -16.6087
   -16.6068 -16.6016 -16.5786 -16.5546 -16.5507 -16.4493 -15.8245 -15.7855
   -15.6540 -15.6397 -15.5271 -15.4472 -15.3766 -15.3556 -15.2902 -15.0831
   -14.9585 -14.9506 -14.8013 -14.7944 -14.7172 -14.7133 -14.6647 -12.3423
   -12.2358 -12.1021 -12.0922 -11.8607 -10.9056 -10.6131 -10.4152 -10.4054
   -10.1410  -9.3401  -9.0783  -8.9589  -8.9544  -8.7175  -8.5823  -8.3809
    -8.3549  -8.3217  -8.1746  -8.1215  -7.9809  -7.9368  -7.9082  -7.8888
    -7.8005  -7.7881  -7.7594  -7.5181  -7.2737  -7.2400  -7.2173  -7.0538
    -7.0436  -6.6758  -6.6234  -6.5766  -6.5443  -6.4794  -5.8822  -5.8558
    -5.8265  -5.7945  -5.7204  -5.6888  -5.6427  -5.5502  -5.4308  -5.4047
    -5.3740  -5.3440  -5.2920  -5.2575  -5.2348  -5.2006  -5.0928  -5.0723
    -5.0215  -4.9901  -4.9675  -4.8775  -4.8530  -4.8246  -4.5838  -4.5569
    -4.5391  -4.4696  -4.3731  -4.3015  -4.2607  -4.2176  -4.1687  -4.1460
    -4.1210  -4.0822  -3.9927  -3.8942  -3.8695  -3.8629  -3.7868  -3.7584
    -3.6105  -3.5749  -3.5504  -3.5210  -3.4860  -3.4567  -3.4351  -3.4160
    -3.3703  -3.3543  -3.3038  -3.2900  -3.2631  -3.2174  -3.1529  -3.0886
    -3.0735  -3.0284  -2.9615  -2.9365  -2.8883  -2.8284  -2.7660  -2.6416
    -0.5135  -0.4106  -0.3505  -0.3330   0.1354   0.3681   0.3970   0.4016
     0.4193   0.7079   0.7976   0.8227   0.8762   0.8884   0.9088   0.9197
     0.9789   1.0259   1.0478   1.0804   1.2786   1.3896   1.4201   1.4575
     1.5898   1.6917   1.9041   1.9677   1.9957   2.0901   2.1367   2.1482
     2.2305   2.3284   2.4348   2.5023   2.5303   2.5755   2.6835   2.8329
     2.9067   2.9808   3.0165   3.0416   3.1019   3.1670   3.2109   3.2494
     3.2763   3.3303   3.3402   3.3979   3.4317   3.4804   3.5091   3.5808
     3.6461   3.6880   3.7040   3.7765   3.8203   3.8729   4.0118   4.0415
     4.0891   4.1610   4.1902   4.2496   4.2863   4.3156   4.3621   4.4062
     4.4597   4.4815   4.5117   4.5341   4.5825   4.6076   4.6792   4.7102
     4.7566   4.8300

          k = 0.2500 0.6255-0.2308 ( 96114 PWs)   bands (ev):

  -113.7631-113.7566-113.7564-113.5659 -71.2348 -71.2335 -71.2279 -71.2276
   -71.2275 -71.2272 -71.0809 -71.0785 -71.0659 -71.0596 -71.0595 -70.7859
   -23.4292 -20.2008 -18.2349 -18.2140 -18.1930 -18.1282 -17.3378 -17.3348
   -17.3250 -17.3199 -16.9180 -16.9053 -16.8986 -16.8925 -16.7554 -16.7220
   -16.6905 -16.6272 -16.6245 -16.6225 -16.6149 -16.6140 -16.6120 -16.6091
   -16.6077 -16.6012 -16.5738 -16.5647 -16.5538 -16.4413 -15.8225 -15.7828
   -15.6321 -15.5788 -15.5519 -15.5060 -15.3751 -15.3475 -15.3098 -15.0822
   -14.9479 -14.9006 -14.8511 -14.8051 -14.7147 -14.6988 -14.6802 -12.2833
   -12.2224 -12.1680 -12.1015 -11.8496 -10.9050 -10.5497 -10.4789 -10.4144
   -10.1238  -9.3406  -9.0418  -8.9971  -8.9555  -8.6776  -8.5852  -8.3870
    -8.3704  -8.3433  -8.1746  -8.1262  -7.9738  -7.9361  -7.9196  -7.8778
    -7.8373  -7.8026  -7.7879  -7.5211  -7.2475  -7.2323  -7.1909  -7.1139
    -7.0491  -6.6686  -6.5964  -6.5521  -6.5317  -6.4669  -5.8596  -5.8191
    -5.7989  -5.7758  -5.7323  -5.6970  -5.6501  -5.5805  -5.4292  -5.3982
    -5.3689  -5.3323  -5.3002  -5.2542  -5.2228  -5.1997  -5.1074  -5.0753
    -5.0311  -4.9941  -4.9361  -4.9162  -4.8862  -4.8450  -4.5811  -4.5343
    -4.5187  -4.4893  -4.3613  -4.2937  -4.2592  -4.2189  -4.1579  -4.1339
    -4.1099  -4.0672  -3.9791  -3.9253  -3.8955  -3.8628  -3.8298  -3.7519
    -3.5985  -3.5793  -3.5445  -3.5146  -3.4797  -3.4687  -3.4241  -3.4026
    -3.3791  -3.3561  -3.3129  -3.2730  -3.2376  -3.2154  -3.1537  -3.1355
    -3.0970  -3.0638  -2.9361  -2.9135  -2.8825  -2.8449  -2.8014  -2.6243
    -0.5202  -0.3751  -0.3559  -0.3373   0.1026   0.3667   0.3821   0.3886
     0.4175   0.7104   0.8209   0.8415   0.8637   0.8992   0.9181   0.9403
     0.9612   1.0239   1.0564   1.1153   1.2362   1.3861   1.4321   1.4491
     1.5814   1.6782   1.9337   2.0140   2.0463   2.0999   2.1380   2.1503
     2.1910   2.3075   2.4566   2.4643   2.5025   2.5770   2.6885   2.7710
     2.9026   3.0170   3.0654   3.0834   3.1171   3.1896   3.2277   3.2638
     3.2809   3.3051   3.3355   3.3521   3.3934   3.4234   3.4959   3.5632
     3.6488   3.7018   3.7433   3.7836   3.8150   3.8718   3.9259   4.0516
     4.1232   4.1751   4.1940   4.2307   4.2755   4.3352   4.3682   4.4224
     4.4654   4.5225   4.5415   4.5610   4.5854   4.6474   4.6982   4.7330
     4.7788   4.7905

          k = 0.2500-0.3368-0.2308 ( 96066 PWs)   bands (ev):

  -113.7631-113.7566-113.7564-113.5659 -71.2348 -71.2335 -71.2279 -71.2276
   -71.2275 -71.2272 -71.0809 -71.0785 -71.0659 -71.0596 -71.0595 -70.7859
   -23.4292 -20.2008 -18.2695 -18.1914 -18.1724 -18.1342 -17.3398 -17.3373
   -17.3249 -17.3180 -16.9071 -16.9058 -16.8895 -16.8874 -16.8208 -16.6891
   -16.6683 -16.6299 -16.6259 -16.6222 -16.6174 -16.6144 -16.6127 -16.6083
   -16.6065 -16.6007 -16.5818 -16.5503 -16.5349 -16.4632 -15.8283 -15.7880
   -15.7045 -15.6737 -15.4970 -15.3973 -15.3856 -15.3516 -15.2636 -15.0846
   -14.9983 -14.9737 -14.7849 -14.7499 -14.7320 -14.7125 -14.6519 -12.4107
   -12.2365 -12.0862 -12.0325 -11.8820 -10.9053 -10.6704 -10.4038 -10.3452
   -10.1706  -9.3398  -9.1112  -8.9640  -8.9182  -8.7613  -8.5809  -8.3582
    -8.3339  -8.2861  -8.2187  -8.0583  -8.0191  -7.9450  -7.9068  -7.8529
    -7.7719  -7.7460  -7.7218  -7.5115  -7.3478  -7.2400  -7.1783  -7.0375
    -7.0223  -6.7000  -6.6416  -6.6275  -6.5899  -6.4922  -5.9227  -5.8904
    -5.8635  -5.7914  -5.7363  -5.6691  -5.6427  -5.5054  -5.4321  -5.4186
    -5.3862  -5.3567  -5.2784  -5.2629  -5.2403  -5.2138  -5.0792  -5.0620
    -5.0315  -5.0002  -4.9536  -4.8469  -4.8231  -4.7745  -4.5851  -4.5757
    -4.5643  -4.4579  -4.3620  -4.3173  -4.2622  -4.2376  -4.1979  -4.1608
    -4.1311  -4.1023  -3.9996  -3.8921  -3.8538  -3.8269  -3.7710  -3.7304
    -3.6123  -3.5891  -3.5503  -3.5317  -3.4845  -3.4520  -3.4296  -3.4131
    -3.3803  -3.3486  -3.3171  -3.2931  -3.2734  -3.2253  -3.1596  -3.0766
    -3.0228  -2.9812  -2.9595  -2.9318  -2.9123  -2.8133  -2.7093  -2.6697
    -0.4941  -0.4714  -0.3597  -0.3185   0.1998   0.3441   0.3798   0.4472
     0.4580   0.6975   0.7242   0.8092   0.8467   0.8792   0.9012   0.9278
     0.9485   0.9911   1.0477   1.1576   1.2865   1.3880   1.4004   1.4814
     1.6068   1.7059   1.8652   1.8982   1.9112   2.1100   2.1502   2.1627
     2.2497   2.3593   2.4766   2.5281   2.5615   2.6467   2.7058   2.7868
     2.9129   2.9461   2.9734   3.0092   3.0799   3.1006   3.1539   3.2066
     3.2465   3.3174   3.3866   3.4465   3.4787   3.4976   3.5487   3.5825
     3.6173   3.7231   3.7392   3.7883   3.8812   3.9441   3.9746   4.0361
     4.0957   4.1567   4.1943   4.2360   4.2831   4.3192   4.3550   4.3930
     4.4346   4.4555   4.4846   4.5189   4.5513   4.5998   4.6509   4.6821
     4.7343   4.7747

          k = 0.2500-0.1443-0.2308 ( 96098 PWs)   bands (ev):

  -113.7631-113.7566-113.7564-113.5659 -71.2348 -71.2335 -71.2279 -71.2276
   -71.2275 -71.2272 -71.0809 -71.0785 -71.0659 -71.0596 -71.0595 -70.7859
   -23.4292 -20.2008 -18.2923 -18.1770 -18.1518 -18.1430 -17.3437 -17.3381
   -17.3304 -17.3106 -16.9089 -16.8900 -16.8845 -16.8744 -16.8627 -16.6782
   -16.6453 -16.6429 -16.6268 -16.6223 -16.6195 -16.6149 -16.6132 -16.6071
   -16.6051 -16.6001 -16.5851 -16.5392 -16.5036 -16.4951 -15.8317 -15.7959
   -15.7800 -15.7317 -15.4295 -15.4106 -15.3513 -15.3023 -15.2327 -15.0768
   -15.0683 -15.0136 -14.7539 -14.7505 -14.7201 -14.6826 -14.6338 -12.5115
   -12.2364 -12.0436 -11.9468 -11.9416 -10.9065 -10.7448 -10.3675 -10.2601
   -10.2476  -9.3386  -9.1519  -8.9587  -8.8718  -8.8613  -8.5778  -8.3049
    -8.2715  -8.2501  -8.2195  -8.0850  -7.9815  -7.9450  -7.9189  -7.7584
    -7.7274  -7.6824  -7.6526  -7.4992  -7.4495  -7.2391  -7.0635  -7.0555
    -7.0106  -6.7652  -6.7199  -6.7120  -6.6643  -6.5124  -5.9779  -5.9512
    -5.9387  -5.7809  -5.7388  -5.6890  -5.6547  -5.4640  -5.4414  -5.4299
    -5.3959  -5.3549  -5.3029  -5.2480  -5.2443  -5.2139  -5.0526  -5.0408
    -5.0102  -5.0032  -4.9520  -4.7882  -4.7669  -4.7215  -4.5984  -4.5859
    -4.5767  -4.4357  -4.3807  -4.3167  -4.2962  -4.2683  -4.2370  -4.1946
    -4.1679  -4.1281  -4.0373  -3.8759  -3.8446  -3.8260  -3.7596  -3.6622
    -3.6194  -3.6017  -3.5620  -3.5166  -3.4646  -3.4560  -3.4249  -3.4119
    -3.3760  -3.3666  -3.3256  -3.2935  -3.2629  -3.2495  -3.2018  -3.0293
    -2.9793  -2.9473  -2.9263  -2.8942  -2.8111  -2.7672  -2.7298  -2.6372
    -0.6192  -0.4256  -0.3976  -0.3077   0.2688   0.3360   0.3573   0.4789
     0.5677   0.5826   0.7021   0.7297   0.7596   0.8631   0.9030   0.9193
     0.9563   0.9693   1.0282   1.2632   1.3118   1.3548   1.4226   1.5067
     1.6020   1.7392   1.7832   1.8356   1.8726   2.1337   2.1896   2.2157
     2.2609   2.3724   2.5124   2.5718   2.6235   2.6976   2.7266   2.8310
     2.8913   2.9341   2.9476   2.9872   3.0027   3.0582   3.0994   3.1312
     3.2151   3.3142   3.3962   3.4756   3.5089   3.5463   3.6108   3.6415
     3.6775   3.7252   3.7756   3.8512   3.8862   3.9581   3.9938   4.0028
     4.0655   4.1109   4.1517   4.1756   4.2411   4.2714   4.3118   4.3597
     4.3774   4.4015   4.4795   4.5034   4.5398   4.5893   4.6040   4.6498
     4.6942   4.7420

          k = 0.4167 0.7217-0.2308 ( 96084 PWs)   bands (ev):

  -113.7631-113.7566-113.7564-113.5659 -71.2348 -71.2335 -71.2279 -71.2276
   -71.2275 -71.2272 -71.0809 -71.0785 -71.0659 -71.0596 -71.0595 -70.7859
   -23.4292 -20.2008 -18.2334 -18.2279 -18.1768 -18.1319 -17.3384 -17.3333
   -17.3257 -17.3206 -16.9151 -16.9040 -16.8976 -16.8937 -16.7548 -16.7470
   -16.6670 -16.6277 -16.6256 -16.6222 -16.6155 -16.6144 -16.6114 -16.6108
   -16.6068 -16.6009 -16.5736 -16.5708 -16.5372 -16.4514 -15.8182 -15.7814
   -15.6762 -15.5445 -15.5302 -15.5202 -15.4120 -15.3229 -15.2988 -15.0778
   -14.9876 -14.8621 -14.8558 -14.7977 -14.7335 -14.6866 -14.6796 -12.2815
   -12.2437 -12.1983 -12.0394 -11.8651 -10.9043 -10.5444 -10.5369 -10.3464
   -10.1431  -9.3399  -9.0438  -9.0346  -8.9043  -8.7067  -8.5820  -8.3876
    -8.3480  -8.3346  -8.2436  -8.0525  -7.9568  -7.9414  -7.9385  -7.8872
    -7.8481  -7.7836  -7.7672  -7.5173  -7.2405  -7.2076  -7.1892  -7.1774
    -7.0192  -6.6717  -6.6282  -6.5673  -6.5137  -6.4709  -5.8978  -5.8356
    -5.7936  -5.7507  -5.7333  -5.7125  -5.6267  -5.5725  -5.4293  -5.3932
    -5.3681  -5.3409  -5.2990  -5.2590  -5.2435  -5.2023  -5.1186  -5.0716
    -5.0224  -4.9896  -4.9329  -4.8954  -4.8661  -4.8445  -4.5788  -4.5472
    -4.5270  -4.4904  -4.3607  -4.2941  -4.2582  -4.2170  -4.1760  -4.1393
    -4.1074  -4.0535  -3.9732  -3.9298  -3.9063  -3.8599  -3.8358  -3.7314
    -3.5912  -3.5684  -3.5376  -3.5073  -3.4858  -3.4693  -3.4297  -3.4049
    -3.3928  -3.3633  -3.3137  -3.2678  -3.2269  -3.2124  -3.1626  -3.1331
    -3.0970  -3.0293  -2.9443  -2.9334  -2.8692  -2.8480  -2.7968  -2.6498
    -0.5077  -0.3828  -0.3587  -0.3380   0.1336   0.3394   0.4024   0.4130
     0.4269   0.7173   0.7443   0.8474   0.8624   0.9011   0.9168   0.9406
     0.9792   0.9990   1.0693   1.1721   1.2543   1.3511   1.3971   1.4665
     1.5911   1.6952   1.9198   1.9417   2.0175   2.0692   2.1377   2.1682
     2.2085   2.3177   2.4557   2.4706   2.5345   2.6363   2.6933   2.7188
     2.9199   3.0076   3.0288   3.0631   3.1106   3.1582   3.2082   3.2496
     3.2587   3.2929   3.3192   3.3445   3.4107   3.4277   3.5104   3.5730
     3.6970   3.7455   3.7706   3.8343   3.8574   3.9013   3.9245   4.0400
     4.0876   4.1476   4.1757   4.2114   4.2534   4.3450   4.3644   4.4107
     4.4465   4.5360   4.5700   4.5942   4.6207   4.6633   4.6816   4.7612
     4.7751   4.8273

          k = 0.4167-0.2406-0.2308 ( 96042 PWs)   bands (ev):

  -113.7631-113.7566-113.7564-113.5659 -71.2348 -71.2335 -71.2279 -71.2276
   -71.2275 -71.2272 -71.0809 -71.0785 -71.0659 -71.0596 -71.0595 -70.7859
   -23.4292 -20.2008 -18.2570 -18.2142 -18.1524 -18.1448 -17.3389 -17.3343
   -17.3261 -17.3202 -16.9068 -16.9042 -16.8974 -16.8886 -16.7993 -16.7285
   -16.6402 -16.6367 -16.6261 -16.6217 -16.6176 -16.6143 -16.6124 -16.6101
   -16.6058 -16.6010 -16.5795 -16.5657 -16.4973 -16.4888 -15.8179 -15.7656
   -15.7455 -15.5980 -15.4813 -15.4598 -15.4376 -15.3200 -15.2704 -15.0556
   -15.0493 -14.9038 -14.7866 -14.7687 -14.7632 -14.6944 -14.6620 -12.3595
   -12.2419 -12.1703 -11.9367 -11.9311 -10.9044 -10.6308 -10.4919 -10.2364
   -10.2236  -9.3395  -9.0910  -9.0175  -8.8201  -8.8043  -8.5799  -8.3504
    -8.3258  -8.3153  -8.2933  -8.0032  -7.9785  -7.9450  -7.9253  -7.8713
    -7.8466  -7.7440  -7.7266  -7.5123  -7.3023  -7.2389  -7.1334  -7.0838
    -7.0802  -6.6969  -6.6649  -6.5856  -6.5298  -6.4844  -5.9179  -5.9051
    -5.8050  -5.7879  -5.7327  -5.6684  -5.6312  -5.5288  -5.4352  -5.4041
    -5.3776  -5.3435  -5.2888  -5.2765  -5.2550  -5.2128  -5.1138  -5.0648
    -5.0145  -4.9878  -4.9272  -4.8581  -4.8307  -4.8069  -4.5817  -4.5680
    -4.5592  -4.4859  -4.3637  -4.2824  -4.2680  -4.2363  -4.1985  -4.1514
    -4.1156  -4.0673  -3.9839  -3.9134  -3.8886  -3.8408  -3.8113  -3.7223
    -3.5854  -3.5727  -3.5268  -3.5094  -3.4742  -3.4585  -3.4380  -3.4255
    -3.3965  -3.3535  -3.3242  -3.2800  -3.2576  -3.2103  -3.1533  -3.1110
    -3.0349  -3.0209  -2.9618  -2.9279  -2.8867  -2.7820  -2.7626  -2.7295
    -0.4596  -0.4349  -0.4087  -0.3044   0.2485   0.2601   0.3951   0.4581
     0.5440   0.5676   0.7661   0.7929   0.8564   0.8894   0.9146   0.9276
     0.9666   0.9938   1.1609   1.2134   1.2476   1.2826   1.4155   1.4587
     1.6089   1.7590   1.8041   1.9018   1.9294   2.0614   2.1537   2.1708
     2.2400   2.3293   2.4665   2.4883   2.5687   2.6457   2.7042   2.7889
     2.9185   2.9710   2.9962   3.0140   3.0488   3.0685   3.1787   3.2322
     3.2520   3.2826   3.2995   3.3817   3.4178   3.4922   3.5973   3.6725
     3.7144   3.7329   3.7963   3.8454   3.9073   3.9431   3.9543   4.0243
     4.0603   4.0992   4.1319   4.2002   4.2398   4.2940   4.3178   4.3818
     4.4762   4.5139   4.5668   4.6134   4.6318   4.6744   4.6989   4.7565
     4.7946   4.8133

          k =-0.0833 0.1443 0.2308 ( 95992 PWs)   bands (ev):

  -113.7631-113.7566-113.7564-113.5659 -71.2348 -71.2335 -71.2279 -71.2276
   -71.2275 -71.2272 -71.0809 -71.0785 -71.0659 -71.0596 -71.0595 -70.7859
   -23.4292 -20.2008 -18.3070 -18.1610 -18.1531 -18.1397 -17.3458 -17.3420
   -17.3322 -17.3046 -16.9108 -16.8961 -16.8767 -16.8706 -16.8640 -16.6593
   -16.6554 -16.6459 -16.6263 -16.6224 -16.6212 -16.6151 -16.6138 -16.6052
   -16.6046 -16.5995 -16.5867 -16.5185 -16.5118 -16.4977 -15.8511 -15.8103
   -15.8021 -15.7795 -15.3988 -15.3745 -15.3678 -15.2415 -15.2172 -15.0930
   -15.0756 -15.0679 -14.7466 -14.7372 -14.7320 -14.6389 -14.6212 -12.5817
   -12.2363 -11.9838 -11.9695 -11.9379 -10.9092 -10.7906 -10.3049 -10.2926
   -10.2568  -9.3383  -9.1766  -8.9273  -8.9168  -8.8884  -8.5756  -8.2601
    -8.2487  -8.2144  -8.1782  -8.1192  -7.9538  -7.9262  -7.9051  -7.7125
    -7.6567  -7.6480  -7.5919  -7.5149  -7.4836  -7.2397  -7.0486  -7.0017
    -6.9854  -6.8289  -6.8063  -6.7923  -6.7580  -6.5177  -6.0193  -5.9955
    -5.9849  -5.7675  -5.7490  -5.7030  -5.6886  -5.4602  -5.4500  -5.4382
    -5.3713  -5.3533  -5.3287  -5.2429  -5.2277  -5.2129  -5.0300  -5.0258
    -5.0147  -4.9757  -4.9493  -4.7525  -4.7401  -4.6950  -4.5900  -4.5788
    -4.5657  -4.4065  -4.3782  -4.3371  -4.3155  -4.2882  -4.2610  -4.2353
    -4.2010  -4.1734  -4.0744  -3.8844  -3.8473  -3.8378  -3.7693  -3.6912
    -3.6221  -3.6132  -3.5306  -3.5039  -3.4803  -3.4452  -3.4326  -3.4076
    -3.3665  -3.3636  -3.3294  -3.2937  -3.2697  -3.2161  -3.1616  -3.0062
    -2.9455  -2.9269  -2.9126  -2.8415  -2.7960  -2.7464  -2.6435  -2.5791
    -0.7589  -0.4056  -0.3704  -0.3471   0.1771   0.3875   0.4411   0.4618
     0.5238   0.5550   0.5849   0.7407   0.7808   0.7953   0.9316   0.9528
     0.9665   0.9685   0.9944   1.2516   1.3747   1.4070   1.4289   1.5206
     1.5994   1.7359   1.7578   1.8234   1.8672   2.1678   2.2174   2.2545
     2.2728   2.3720   2.5520   2.5915   2.6136   2.6713   2.7439   2.8692
     2.9263   2.9521   2.9633   2.9861   3.0073   3.0522   3.0733   3.1366
     3.2181   3.3226   3.3654   3.4490   3.4640   3.5055   3.5954   3.6282
     3.6936   3.7180   3.8145   3.8761   3.9204   3.9411   3.9859   4.0614
     4.0895   4.1239   4.1472   4.1929   4.2116   4.2465   4.2685   4.3117
     4.3317   4.3683   4.4094   4.4344   4.4661   4.5082   4.5408   4.5860
     4.6270   4.6588

          k = 0.1667 0.0000-0.2308 ( 95992 PWs)   bands (ev):

  -113.7631-113.7566-113.7564-113.5659 -71.2348 -71.2335 -71.2279 -71.2276
   -71.2275 -71.2272 -71.0809 -71.0785 -71.0659 -71.0596 -71.0595 -70.7859
   -23.4292 -20.2008 -18.3070 -18.1609 -18.1531 -18.1399 -17.3465 -17.3407
   -17.3330 -17.3046 -16.9108 -16.8968 -16.8744 -16.8720 -16.8642 -16.6590
   -16.6550 -16.6462 -16.6267 -16.6232 -16.6205 -16.6150 -16.6137 -16.6054
   -16.6044 -16.5995 -16.5867 -16.5175 -16.5146 -16.4960 -15.8461 -15.8183
   -15.8007 -15.7776 -15.3997 -15.3742 -15.3674 -15.2429 -15.2160 -15.0926
   -15.0750 -15.0687 -14.7469 -14.7352 -14.7338 -14.6385 -14.6216 -12.5816
   -12.2362 -11.9853 -11.9663 -11.9397 -10.9091 -10.7907 -10.3018 -10.2969
   -10.2555  -9.3380  -9.1767  -8.9284  -8.9178  -8.8871  -8.5759  -8.2582
    -8.2408  -8.2256  -8.1686  -8.1287  -7.9455  -7.9250  -7.9124  -7.7095
    -7.6612  -7.6466  -7.5926  -7.5147  -7.4832  -7.2393  -7.0491  -7.0020
    -6.9850  -6.8269  -6.8132  -6.7946  -6.7494  -6.5185  -6.0206  -5.9921
    -5.9887  -5.7717  -5.7426  -5.7041  -5.6877  -5.4601  -5.4542  -5.4315
    -5.3748  -5.3575  -5.3237  -5.2407  -5.2313  -5.2135  -5.0387  -5.0194
    -5.0094  -4.9742  -4.9512  -4.7547  -4.7391  -4.6944  -4.5882  -4.5801
    -4.5662  -4.4003  -4.3841  -4.3284  -4.3115  -4.3016  -4.2658  -4.2351
    -4.2078  -4.1620  -4.0738  -3.8827  -3.8485  -3.8386  -3.7659  -3.6913
    -3.6248  -3.6106  -3.5283  -3.5025  -3.4822  -3.4464  -3.4301  -3.4146
    -3.3710  -3.3582  -3.3327  -3.2934  -3.2689  -3.2104  -3.1647  -3.0053
    -2.9486  -2.9262  -2.9102  -2.8352  -2.8075  -2.7446  -2.6416  -2.5804
    -0.7584  -0.4112  -0.3636  -0.3481   0.1781   0.3866   0.4404   0.4716
     0.5255   0.5459   0.5835   0.7381   0.7871   0.7922   0.9371   0.9460
     0.9546   0.9860   0.9900   1.2505   1.3727   1.4131   1.4246   1.5204
     1.5926   1.7439   1.7600   1.8162   1.8717   2.1697   2.2130   2.2549
     2.2771   2.3705   2.5520   2.5862   2.6152   2.6998   2.7160   2.8753
     2.9148   2.9436   2.9562   2.9942   3.0233   3.0528   3.1081   3.1486
     3.1852   3.2836   3.3820   3.4498   3.4637   3.5168   3.5495   3.6614
     3.7012   3.7461   3.8377   3.8694   3.9165   3.9385   3.9917   4.0017
     4.0771   4.1257   4.1597   4.2019   4.2230   4.2461   4.2703   4.3087
     4.3445   4.3661   4.4110   4.4266   4.4676   4.4981   4.5140   4.5885
     4.6201   4.6971

          k =-0.0833 0.3368 0.2308 ( 96032 PWs)   bands (ev):

  -113.7631-113.7566-113.7564-113.5659 -71.2348 -71.2335 -71.2279 -71.2276
   -71.2275 -71.2272 -71.0809 -71.0785 -71.0659 -71.0596 -71.0595 -70.7859
   -23.4292 -20.2008 -18.2829 -18.1837 -18.1604 -18.1387 -17.3411 -17.3392
   -17.3268 -17.3145 -16.9077 -16.8975 -16.8877 -16.8779 -16.8471 -16.6859
   -16.6526 -16.6359 -16.6255 -16.6222 -16.6183 -16.6146 -16.6131 -16.6068
   -16.6064 -16.6007 -16.5839 -16.5452 -16.5163 -16.4816 -15.8330 -15.7868
   -15.7573 -15.7009 -15.4612 -15.3998 -15.3579 -15.3326 -15.2470 -15.0789
   -15.0469 -14.9881 -14.7693 -14.7414 -14.7186 -14.7101 -14.6408 -12.4692
   -12.2368 -12.0675 -11.9820 -11.9094 -10.9067 -10.7138 -10.3869 -10.2942
   -10.2106  -9.3398  -9.1348  -8.9581  -8.8924  -8.8186  -8.5789  -8.3351
    -8.3105  -8.2577  -8.2110  -8.0575  -8.0349  -7.9377  -7.9094  -7.7963
    -7.7527  -7.7080  -7.6824  -7.5061  -7.4087  -7.2398  -7.1208  -7.0338
    -7.0127  -6.7350  -6.7114  -6.6455  -6.6318  -6.5004  -5.9581  -5.9208
    -5.9074  -5.7878  -5.7390  -5.6830  -5.6440  -5.4786  -5.4407  -5.4260
    -5.3962  -5.3495  -5.2942  -5.2529  -5.2475  -5.2134  -5.0676  -5.0395
    -5.0166  -4.9944  -4.9656  -4.8085  -4.7950  -4.7398  -4.5986  -4.5889
    -4.5672  -4.4544  -4.3722  -4.3287  -4.2759  -4.2492  -4.1963  -4.1794
    -4.1543  -4.1328  -4.0174  -3.8765  -3.8463  -3.8260  -3.7599  -3.6796
    -3.6225  -3.6067  -3.5539  -3.5134  -3.4679  -3.4496  -3.4371  -3.4139
    -3.3997  -3.3471  -3.3324  -3.2941  -3.2531  -3.2364  -3.1998  -3.0442
    -3.0119  -2.9492  -2.9287  -2.9064  -2.8684  -2.7915  -2.7080  -2.6746
    -0.5523  -0.4567  -0.3828  -0.3056   0.2670   0.3073   0.3803   0.4516
     0.5094   0.6739   0.6988   0.7479   0.8121   0.8880   0.9055   0.9218
     0.9555   0.9742   1.0076   1.2590   1.2896   1.3308   1.4358   1.4893
     1.6107   1.7329   1.7919   1.8610   1.8965   2.1226   2.1630   2.1873
     2.2670   2.3564   2.4760   2.5611   2.5764   2.6628   2.7162   2.8617
     2.8950   2.9172   2.9705   2.9912   3.0377   3.0610   3.1215   3.1784
     3.2740   3.3533   3.4011   3.4290   3.4651   3.5175   3.5486   3.6425
     3.6676   3.7204   3.7604   3.8451   3.8789   3.8985   4.0051   4.0438
     4.0986   4.1221   4.1381   4.2041   4.2496   4.2809   4.3145   4.3491
     4.4160   4.4591   4.4721   4.5010   4.5905   4.6267   4.6476   4.6872
     4.7092   4.7608

          k =-0.2500 0.2406-0.2308 ( 96032 PWs)   bands (ev):

  -113.7631-113.7566-113.7564-113.5659 -71.2348 -71.2335 -71.2279 -71.2276
   -71.2275 -71.2272 -71.0809 -71.0785 -71.0659 -71.0596 -71.0595 -70.7859
   -23.4292 -20.2008 -18.2829 -18.1845 -18.1589 -18.1394 -17.3417 -17.3380
   -17.3279 -17.3140 -16.9078 -16.8972 -16.8868 -16.8803 -16.8461 -16.6849
   -16.6537 -16.6349 -16.6264 -16.6221 -16.6189 -16.6146 -16.6129 -16.6077
   -16.6056 -16.6004 -16.5839 -16.5457 -16.5162 -16.4808 -15.8309 -15.7891
   -15.7537 -15.7038 -15.4574 -15.4123 -15.3479 -15.3369 -15.2451 -15.0831
   -15.0385 -14.9928 -14.7679 -14.7449 -14.7167 -14.7085 -14.6415 -12.4690
   -12.2366 -12.0676 -11.9811 -11.9107 -10.9058 -10.7146 -10.3894 -10.2924
   -10.2100  -9.3392  -9.1356  -8.9647  -8.8887  -8.8158  -8.5789  -8.3295
    -8.2965  -8.2504  -8.2499  -8.0574  -7.9928  -7.9616  -7.9152  -7.7975
    -7.7510  -7.7072  -7.6829  -7.5048  -7.4086  -7.2394  -7.1212  -7.0306
    -7.0252  -6.7309  -6.6823  -6.6719  -6.6299  -6.5052  -5.9530  -5.9293
    -5.9055  -5.7839  -5.7427  -5.6750  -5.6449  -5.4738  -5.4404  -5.4253
    -5.3942  -5.3591  -5.2879  -5.2577  -5.2450  -5.2128  -5.0673  -5.0484
    -5.0231  -5.0039  -4.9491  -4.8147  -4.7866  -4.7416  -4.5971  -4.5839
    -4.5748  -4.4477  -4.3702  -4.3192  -4.2708  -4.2572  -4.2283  -4.1768
    -4.1475  -4.1167  -4.0201  -3.8809  -3.8455  -3.8220  -3.7601  -3.6788
    -3.6242  -3.5985  -3.5569  -3.5247  -3.4771  -3.4562  -3.4278  -3.4042
    -3.3764  -3.3646  -3.3260  -3.2925  -3.2653  -3.2333  -3.1977  -3.0502
    -2.9897  -2.9621  -2.9389  -2.9199  -2.8613  -2.7883  -2.7143  -2.6650
    -0.5522  -0.4533  -0.3848  -0.3053   0.2751   0.3087   0.3572   0.4739
     0.5266   0.6386   0.7148   0.7597   0.7892   0.8756   0.8927   0.9221
     0.9433   0.9840   1.0485   1.2360   1.2772   1.3757   1.4053   1.4989
     1.6074   1.7252   1.8142   1.8575   1.8817   2.1188   2.1733   2.1841
     2.2636   2.3699   2.4944   2.5459   2.6053   2.6736   2.7205   2.8194
     2.8956   2.9336   2.9548   2.9887   3.0257   3.0722   3.1148   3.1714
     3.2184   3.3182   3.3930   3.4656   3.5004   3.5558   3.6023   3.6272
     3.6469   3.6957   3.7337   3.8361   3.9016   3.9540   3.9861   4.0471
     4.0704   4.1047   4.1699   4.1992   4.2484   4.2900   4.3168   4.3831
     4.4021   4.4640   4.4827   4.5040   4.5520   4.6273   4.6459   4.6679
     4.6944   4.7707

          k = 0.3333 0.0962-0.2308 ( 96032 PWs)   bands (ev):

  -113.7631-113.7566-113.7564-113.5659 -71.2348 -71.2335 -71.2279 -71.2276
   -71.2275 -71.2272 -71.0809 -71.0785 -71.0659 -71.0596 -71.0595 -70.7859
   -23.4292 -20.2008 -18.2829 -18.1832 -18.1606 -18.1389 -17.3431 -17.3350
   -17.3297 -17.3138 -16.9081 -16.8951 -16.8898 -16.8782 -16.8465 -16.6843
   -16.6535 -16.6351 -16.6269 -16.6231 -16.6181 -16.6143 -16.6129 -16.6069
   -16.6059 -16.6010 -16.5839 -16.5460 -16.5174 -16.4800 -15.8227 -15.8000
   -15.7505 -15.7041 -15.4575 -15.4109 -15.3504 -15.3347 -15.2461 -15.0826
   -15.0378 -14.9934 -14.7676 -14.7442 -14.7177 -14.7088 -14.6416 -12.4686
   -12.2364 -12.0677 -11.9813 -11.9109 -10.9062 -10.7140 -10.3868 -10.2952
   -10.2097  -9.3385  -9.1352  -8.9597  -8.8960  -8.8164  -8.5800  -8.3332
    -8.2853  -8.2587  -8.2444  -8.0641  -7.9907  -7.9554  -7.9189  -7.7895
    -7.7559  -7.7119  -7.6831  -7.5049  -7.4087  -7.2384  -7.1213  -7.0326
    -7.0234  -6.7249  -6.6931  -6.6646  -6.6272  -6.5058  -5.9491  -5.9311
    -5.9132  -5.7890  -5.7390  -5.6759  -5.6413  -5.4773  -5.4424  -5.4171
    -5.3933  -5.3687  -5.2881  -5.2605  -5.2400  -5.2136  -5.0645  -5.0455
    -5.0172  -4.9967  -4.9551  -4.8111  -4.7916  -4.7444  -4.5995  -4.5860
    -4.5731  -4.4484  -4.3695  -4.3117  -4.2823  -4.2579  -4.2227  -4.1750
    -4.1616  -4.1097  -4.0171  -3.8706  -3.8487  -3.8244  -3.7565  -3.6744
    -3.6281  -3.5963  -3.5625  -3.5215  -3.4746  -3.4570  -3.4283  -3.4130
    -3.3791  -3.3617  -3.3274  -3.2897  -3.2653  -3.2368  -3.1956  -3.0405
    -2.9983  -2.9702  -2.9347  -2.9095  -2.8615  -2.7958  -2.7127  -2.6690
    -0.5503  -0.4580  -0.3862  -0.3006   0.2677   0.3185   0.3548   0.4772
     0.5321   0.6410   0.7136   0.7459   0.7935   0.8796   0.8922   0.9192
     0.9422   0.9927   1.0436   1.2407   1.2717   1.3692   1.4128   1.4998
     1.5940   1.7366   1.8084   1.8584   1.9033   2.1130   2.1626   2.1918
     2.2620   2.3714   2.4711   2.5528   2.5962   2.6402   2.7119   2.8512
     2.8918   2.9352   2.9571   3.0066   3.0689   3.1086   3.1435   3.1568
     3.2021   3.3001   3.3872   3.4658   3.4811   3.5407   3.5657   3.6341
     3.6876   3.6952   3.7391   3.8348   3.8984   3.9433   3.9640   4.0302
     4.1024   4.1333   4.1710   4.1956   4.2399   4.2807   4.3211   4.3377
     4.3943   4.4482   4.5038   4.5121   4.5591   4.6060   4.6376   4.6728
     4.7217   4.7341

          k =-0.2500-0.2406 0.2308 ( 96032 PWs)   bands (ev):

  -113.7631-113.7566-113.7564-113.5659 -71.2348 -71.2335 -71.2279 -71.2276
   -71.2275 -71.2272 -71.0809 -71.0785 -71.0659 -71.0596 -71.0595 -70.7859
   -23.4292 -20.2008 -18.2830 -18.1827 -18.1615 -18.1386 -17.3422 -17.3376
   -17.3275 -17.3144 -16.9078 -16.8966 -16.8873 -16.8786 -16.8474 -16.6851
   -16.6524 -16.6353 -16.6266 -16.6230 -16.6187 -16.6140 -16.6128 -16.6072
   -16.6053 -16.6013 -16.5839 -16.5462 -16.5161 -16.4813 -15.8294 -15.7876
   -15.7591 -15.7017 -15.4582 -15.4062 -15.3576 -15.3285 -15.2483 -15.0787
   -15.0465 -14.9881 -14.7686 -14.7415 -14.7190 -14.7108 -14.6408 -12.4686
   -12.2367 -12.0671 -11.9826 -11.9098 -10.9067 -10.7135 -10.3872 -10.2928
   -10.2118  -9.3389  -9.1348  -8.9602  -8.8856  -8.8269  -8.5794  -8.3299
    -8.3126  -8.2541  -8.2159  -8.0608  -8.0249  -7.9424  -7.9100  -7.7902
    -7.7550  -7.7139  -7.6822  -7.5043  -7.4104  -7.2385  -7.1205  -7.0340
    -7.0142  -6.7378  -6.7095  -6.6405  -6.6313  -6.5018  -5.9596  -5.9261
    -5.9051  -5.7896  -5.7391  -5.6798  -5.6415  -5.4885  -5.4407  -5.4145
    -5.3937  -5.3572  -5.2976  -5.2597  -5.2375  -5.2137  -5.0654  -5.0328
    -5.0115  -5.0008  -4.9664  -4.8071  -4.7863  -4.7518  -4.6007  -4.5841
    -4.5712  -4.4486  -4.3788  -4.3131  -4.2960  -4.2423  -4.2116  -4.1830
    -4.1608  -4.1083  -4.0192  -3.8724  -3.8476  -3.8192  -3.7566  -3.6783
    -3.6269  -3.6070  -3.5552  -3.5138  -3.4678  -3.4497  -3.4417  -3.4145
    -3.4004  -3.3529  -3.3300  -3.2868  -3.2573  -3.2381  -3.1959  -3.0458
    -3.0101  -2.9533  -2.9288  -2.9050  -2.8642  -2.7935  -2.7092  -2.6792
    -0.5507  -0.4597  -0.3828  -0.3028   0.2609   0.3091   0.3818   0.4599
     0.5132   0.6723   0.7010   0.7448   0.8079   0.8882   0.9055   0.9184
     0.9559   0.9712   1.0151   1.2557   1.2885   1.3337   1.4361   1.4906
     1.5977   1.7331   1.7987   1.8662   1.9087   2.1134   2.1602   2.1852
     2.2714   2.3610   2.4587   2.5431   2.6002   2.6484   2.7102   2.8607
     2.9027   2.9291   2.9727   2.9900   3.0519   3.0847   3.1420   3.1559
     3.2801   3.3430   3.4028   3.4199   3.4850   3.5034   3.5504   3.6276
     3.6739   3.7152   3.7526   3.8274   3.8944   3.9592   3.9840   4.0429
     4.0598   4.0973   4.1560   4.1949   4.2350   4.2689   4.3253   4.3748
     4.4124   4.4376   4.4639   4.5327   4.5800   4.6210   4.6251   4.6787
     4.7064   4.7578

          k = 0.3333-0.0962 0.2308 ( 96032 PWs)   bands (ev):

  -113.7631-113.7566-113.7564-113.5659 -71.2348 -71.2335 -71.2279 -71.2276
   -71.2275 -71.2272 -71.0809 -71.0785 -71.0659 -71.0596 -71.0595 -70.7859
   -23.4292 -20.2008 -18.2829 -18.1844 -18.1588 -18.1396 -17.3429 -17.3352
   -17.3299 -17.3137 -16.9080 -16.8961 -16.8892 -16.8787 -16.8458 -16.6857
   -16.6521 -16.6357 -16.6267 -16.6224 -16.6183 -16.6147 -16.6130 -16.6079
   -16.6055 -16.6004 -16.5839 -16.5458 -16.5167 -16.4804 -15.8225 -15.7988
   -15.7537 -15.7018 -15.4621 -15.4028 -15.3552 -15.3362 -15.2438 -15.0787
   -15.0473 -14.9877 -14.7689 -14.7424 -14.7180 -14.7099 -14.6408 -12.4688
   -12.2366 -12.0677 -11.9806 -11.9114 -10.9056 -10.7147 -10.3895 -10.2926
   -10.2096  -9.3387  -9.1357  -8.9661  -8.8866  -8.8184  -8.5790  -8.3313
    -8.3053  -8.2505  -8.2231  -8.0614  -8.0299  -7.9346  -7.9151  -7.7892
    -7.7605  -7.7078  -7.6829  -7.5045  -7.4085  -7.2389  -7.1225  -7.0350
    -7.0136  -6.7435  -6.7006  -6.6612  -6.6130  -6.5072  -5.9617  -5.9179
    -5.9084  -5.7887  -5.7305  -5.6845  -5.6429  -5.4794  -5.4396  -5.4149
    -5.4016  -5.3550  -5.2939  -5.2560  -5.2445  -5.2155  -5.0689  -5.0501
    -5.0152  -4.9952  -4.9548  -4.8094  -4.7953  -4.7444  -4.5895  -4.5840
    -4.5740  -4.4488  -4.3797  -4.3063  -4.3007  -4.2450  -4.2125  -4.1832
    -4.1562  -4.1069  -4.0165  -3.8781  -3.8487  -3.8274  -3.7592  -3.6780
    -3.6256  -3.5936  -3.5540  -3.5139  -3.4672  -3.4525  -3.4437  -3.4097
    -3.4006  -3.3467  -3.3323  -3.2952  -3.2596  -3.2371  -3.1947  -3.0447
    -3.0153  -2.9516  -2.9342  -2.9030  -2.8673  -2.7939  -2.7074  -2.6731
    -0.5510  -0.4608  -0.3753  -0.3071   0.2627   0.3162   0.3799   0.4570
     0.5120   0.6624   0.6943   0.7546   0.8098   0.8964   0.9025   0.9169
     0.9539   0.9661   1.0176   1.2588   1.2823   1.3364   1.4287   1.4900
     1.6003   1.7444   1.7989   1.8576   1.8846   2.1181   2.1740   2.1891
     2.2656   2.3615   2.4735   2.5716   2.6175   2.6849   2.7152   2.8294
     2.8776   2.9312   2.9384   2.9851   3.0346   3.0710   3.1201   3.1658
     3.2385   3.3205   3.4183   3.4503   3.4762   3.5006   3.5819   3.6519
     3.6750   3.7280   3.7965   3.8333   3.8737   3.9419   3.9896   4.0255
     4.0956   4.1150   4.1534   4.2029   4.2433   4.2860   4.3069   4.3662
     4.3852   4.4400   4.4699   4.5147   4.5711   4.6101   4.6345   4.6582
     4.7093   4.7729

          k =-0.0833 0.5292 0.2308 ( 96076 PWs)   bands (ev):

  -113.7631-113.7566-113.7564-113.5659 -71.2348 -71.2335 -71.2279 -71.2276
   -71.2275 -71.2272 -71.0809 -71.0785 -71.0659 -71.0596 -71.0595 -70.7859
   -23.4292 -20.2008 -18.2461 -18.2222 -18.1634 -18.1375 -17.3375 -17.3351
   -17.3243 -17.3217 -16.9117 -16.9038 -16.8997 -16.8876 -16.7786 -16.7427
   -16.6496 -16.6320 -16.6243 -16.6222 -16.6153 -16.6143 -16.6125 -16.6090
   -16.6075 -16.6017 -16.5773 -16.5688 -16.5164 -16.4706 -15.8228 -15.7687
   -15.7207 -15.5599 -15.5130 -15.4757 -15.4324 -15.3217 -15.2851 -15.0672
   -15.0244 -14.8759 -14.8208 -14.7842 -14.7499 -14.6891 -14.6708 -12.3182
   -12.2438 -12.1966 -11.9822 -11.8922 -10.9058 -10.5901 -10.5190 -10.2850
   -10.1810  -9.3410  -9.0670  -9.0259  -8.8583  -8.7570  -8.5829  -8.3666
    -8.3514  -8.3252  -8.2697  -8.0176  -7.9735  -7.9486  -7.9033  -7.8861
    -7.8672  -7.7591  -7.7409  -7.5182  -7.2507  -7.2399  -7.1660  -7.1469
    -7.0279  -6.6822  -6.6620  -6.5609  -6.5294  -6.4633  -5.9188  -5.8717
    -5.7930  -5.7775  -5.7313  -5.6930  -5.6258  -5.5463  -5.4381  -5.4178
    -5.3659  -5.3328  -5.2821  -5.2690  -5.2554  -5.2123  -5.1224  -5.0572
    -5.0095  -4.9898  -4.9145  -4.8833  -4.8646  -4.8112  -4.5901  -4.5580
    -4.5392  -4.5045  -4.3635  -4.2900  -4.2516  -4.2177  -4.1747  -4.1401
    -4.1146  -4.0844  -3.9961  -3.9136  -3.8935  -3.8489  -3.8154  -3.7342
    -3.5820  -3.5733  -3.5167  -3.5013  -3.4852  -3.4684  -3.4338  -3.4228
    -3.4016  -3.3652  -3.3197  -3.2619  -3.2445  -3.2149  -3.1495  -3.1222
    -3.0618  -3.0237  -2.9524  -2.9112  -2.8774  -2.8283  -2.7970  -2.6909
    -0.4864  -0.4167  -0.3726  -0.3223   0.1875   0.3026   0.3967   0.4437
     0.4650   0.6566   0.7449   0.8319   0.8548   0.9050   0.9280   0.9306
     0.9693   1.0061   1.1403   1.1550   1.2805   1.3066   1.4043   1.4575
     1.6100   1.7268   1.8486   1.9098   1.9892   2.0550   2.1489   2.1677
     2.2258   2.3042   2.4567   2.4664   2.5101   2.5843   2.6856   2.8636
     2.9282   2.9771   3.0354   3.0458   3.0777   3.1290   3.1881   3.2300
     3.2693   3.2831   3.3060   3.3477   3.4157   3.4854   3.5869   3.6186
     3.6546   3.7328   3.8152   3.8416   3.8623   3.9227   3.9381   4.0330
     4.0724   4.0856   4.1432   4.1966   4.2359   4.3130   4.3520   4.4033
     4.4735   4.5280   4.5703   4.5947   4.6222   4.6954   4.7276   4.7490
     4.7805   4.8155

          k =-0.4167 0.3368-0.2308 ( 96076 PWs)   bands (ev):

  -113.7631-113.7566-113.7564-113.5659 -71.2348 -71.2335 -71.2279 -71.2276
   -71.2275 -71.2272 -71.0809 -71.0785 -71.0659 -71.0596 -71.0595 -70.7859
   -23.4292 -20.2008 -18.2454 -18.2235 -18.1619 -18.1384 -17.3378 -17.3346
   -17.3245 -17.3218 -16.9106 -16.9045 -16.8958 -16.8929 -16.7785 -16.7416
   -16.6497 -16.6309 -16.6259 -16.6218 -16.6169 -16.6144 -16.6119 -16.6106
   -16.6061 -16.6010 -16.5769 -16.5696 -16.5161 -16.4697 -15.8181 -15.7727
   -15.7173 -15.5628 -15.5093 -15.4781 -15.4434 -15.3149 -15.2839 -15.0689
   -15.0219 -14.8794 -14.8176 -14.7833 -14.7518 -14.6872 -14.6717 -12.3155
   -12.2483 -12.1940 -11.9816 -11.8938 -10.9042 -10.5916 -10.5212 -10.2838
   -10.1799  -9.3397  -9.0697  -9.0308  -8.8566  -8.7540  -8.5805  -8.3650
    -8.3414  -8.3187  -8.2915  -7.9860  -7.9772  -7.9439  -7.9272  -7.9079
    -7.8481  -7.7601  -7.7433  -7.5146  -7.2511  -7.2392  -7.1652  -7.1491
    -7.0335  -6.6828  -6.6514  -6.5742  -6.5183  -6.4754  -5.9147  -5.8780
    -5.7919  -5.7672  -5.7314  -5.6940  -5.6162  -5.5534  -5.4290  -5.4032
    -5.3686  -5.3450  -5.2920  -5.2696  -5.2533  -5.2099  -5.1192  -5.0754
    -5.0126  -4.9851  -4.9272  -4.8724  -4.8426  -4.8314  -4.5794  -4.5611
    -4.5462  -4.4912  -4.3595  -4.2876  -4.2490  -4.2347  -4.1946  -4.1433
    -4.1063  -4.0571  -3.9792  -3.9256  -3.9030  -3.8476  -3.8279  -3.7253
    -3.5834  -3.5673  -3.5299  -3.5046  -3.4764  -3.4662  -3.4386  -3.4176
    -3.3942  -3.3634  -3.3172  -3.2685  -3.2457  -3.2129  -3.1555  -3.1042
    -3.0802  -3.0161  -2.9628  -2.9221  -2.8979  -2.8137  -2.7801  -2.6941
    -0.4834  -0.4129  -0.3753  -0.3217   0.1891   0.2943   0.4099   0.4469
     0.4722   0.6356   0.7541   0.8210   0.8750   0.8963   0.9158   0.9260
     0.9546   1.0098   1.1376   1.2253   1.2338   1.2994   1.3946   1.4686
     1.6056   1.7250   1.8574   1.9130   1.9724   2.0477   2.1447   2.1768
     2.2194   2.3233   2.4677   2.4893   2.5295   2.6387   2.7026   2.7516
     2.9342   2.9851   3.0131   3.0290   3.0933   3.1033   3.1955   3.2213
     3.2567   3.2745   3.2935   3.3559   3.4077   3.4898   3.5609   3.6312
     3.7114   3.7550   3.7896   3.8486   3.8711   3.8997   3.9624   4.0325
     4.0799   4.1157   4.1592   4.2022   4.2501   4.2842   4.3302   4.4153
     4.4759   4.5413   4.5729   4.6079   4.6388   4.6670   4.7333   4.7490
     4.7889   4.8143

          k = 0.5000 0.1925-0.2308 ( 96076 PWs)   bands (ev):

  -113.7631-113.7566-113.7564-113.5659 -71.2348 -71.2335 -71.2279 -71.2276
   -71.2275 -71.2272 -71.0809 -71.0785 -71.0659 -71.0596 -71.0595 -70.7859
   -23.4292 -20.2008 -18.2464 -18.2214 -18.1637 -18.1377 -17.3384 -17.3334
   -17.3261 -17.3209 -16.9114 -16.9043 -16.8966 -16.8907 -16.7785 -16.7414
   -16.6497 -16.6309 -16.6262 -16.6230 -16.6166 -16.6144 -16.6111 -16.6084
   -16.6066 -16.6026 -16.5770 -16.5699 -16.5167 -16.4698 -15.8168 -15.7736
   -15.7177 -15.5647 -15.5100 -15.4790 -15.4345 -15.3196 -15.2844 -15.0686
   -15.0212 -14.8795 -14.8164 -14.7842 -14.7518 -14.6891 -14.6711 -12.3142
   -12.2471 -12.1962 -11.9822 -11.8933 -10.9052 -10.5902 -10.5192 -10.2855
   -10.1805  -9.3392  -9.0675  -9.0284  -8.8604  -8.7571  -8.5844  -8.3655
    -8.3391  -8.3199  -8.2861  -8.0004  -7.9716  -7.9445  -7.9216  -7.9029
    -7.8475  -7.7633  -7.7430  -7.5173  -7.2517  -7.2379  -7.1659  -7.1492
    -7.0327  -6.6745  -6.6568  -6.5629  -6.5202  -6.4799  -5.9130  -5.8750
    -5.8004  -5.7748  -5.7313  -5.6965  -5.6227  -5.5483  -5.4277  -5.4083
    -5.3636  -5.3488  -5.2971  -5.2673  -5.2479  -5.2041  -5.1127  -5.0757
    -5.0041  -4.9826  -4.9184  -4.8733  -4.8498  -4.8396  -4.5855  -4.5655
    -4.5422  -4.4945  -4.3597  -4.2764  -4.2520  -4.2353  -4.1916  -4.1428
    -4.1094  -4.0710  -3.9958  -3.9128  -3.8930  -3.8617  -3.7824  -3.7409
    -3.5846  -3.5730  -3.5295  -3.5028  -3.4781  -3.4671  -3.4410  -3.4167
    -3.3938  -3.3659  -3.3140  -3.2708  -3.2521  -3.2192  -3.1529  -3.0915
    -3.0736  -3.0155  -2.9607  -2.9292  -2.8979  -2.8171  -2.7855  -2.6946
    -0.4862  -0.4189  -0.3719  -0.3184   0.1860   0.2929   0.4135   0.4489
     0.4748   0.6408   0.7578   0.8211   0.8665   0.8915   0.9109   0.9319
     0.9609   1.0156   1.1371   1.2236   1.2325   1.2956   1.4024   1.4657
     1.5976   1.7268   1.8568   1.9363   1.9912   2.0382   2.1475   2.1707
     2.2117   2.3065   2.4543   2.4854   2.5070   2.5788   2.6770   2.8739
     2.9285   2.9857   3.0190   3.0713   3.0991   3.1437   3.1966   3.2138
     3.2391   3.2718   3.3014   3.3473   3.4074   3.4942   3.5439   3.6408
     3.7157   3.7533   3.7897   3.8136   3.8442   3.8895   3.9450   4.0268
     4.0765   4.1175   4.1442   4.1998   4.2514   4.3033   4.3370   4.3854
     4.5088   4.5395   4.5803   4.6277   4.6441   4.6755   4.6912   4.7340
     4.8022   4.8174

          k =-0.4167-0.3368 0.2308 ( 96076 PWs)   bands (ev):

  -113.7631-113.7566-113.7564-113.5659 -71.2348 -71.2335 -71.2279 -71.2276
   -71.2275 -71.2272 -71.0809 -71.0785 -71.0659 -71.0596 -71.0595 -70.7859
   -23.4292 -20.2008 -18.2465 -18.2213 -18.1638 -18.1377 -17.3376 -17.3349
   -17.3244 -17.3219 -16.9110 -16.9056 -16.8944 -16.8918 -16.7784 -16.7418
   -16.6494 -16.6309 -16.6262 -16.6230 -16.6169 -16.6143 -16.6112 -16.6084
   -16.6061 -16.6029 -16.5770 -16.5699 -16.5163 -16.4702 -15.8179 -15.7709
   -15.7200 -15.5639 -15.5082 -15.4827 -15.4314 -15.3209 -15.2843 -15.0671
   -15.0240 -14.8753 -14.8196 -14.7845 -14.7508 -14.6911 -14.6695 -12.3142
   -12.2474 -12.1959 -11.9824 -11.8931 -10.9053 -10.5897 -10.5196 -10.2850
   -10.1810  -9.3393  -9.0672  -9.0288  -8.8570  -8.7613  -8.5840  -8.3675
    -8.3449  -8.3193  -8.2737  -8.0119  -7.9779  -7.9538  -7.9018  -7.8842
    -7.8640  -7.7636  -7.7425  -7.5173  -7.2529  -7.2376  -7.1661  -7.1486
    -7.0292  -6.6712  -6.6693  -6.5598  -6.5180  -6.4779  -5.9177  -5.8695
    -5.8006  -5.7718  -5.7314  -5.6969  -5.6275  -5.5502  -5.4329  -5.4046
    -5.3645  -5.3386  -5.2993  -5.2671  -5.2556  -5.2027  -5.1141  -5.0633
    -5.0086  -4.9850  -4.9193  -4.8705  -4.8559  -4.8353  -4.5866  -4.5650
    -4.5354  -4.4996  -4.3624  -4.2832  -4.2587  -4.2258  -4.1863  -4.1427
    -4.1087  -4.0710  -3.9995  -3.9139  -3.8905  -3.8609  -3.7757  -3.7477
    -3.5852  -3.5727  -3.5176  -3.5007  -3.4850  -3.4711  -3.4368  -3.4208
    -3.4050  -3.3630  -3.3166  -3.2664  -3.2495  -3.2126  -3.1525  -3.1186
    -3.0535  -3.0262  -2.9554  -2.9238  -2.8743  -2.8312  -2.7952  -2.6927
    -0.4884  -0.4154  -0.3716  -0.3201   0.1835   0.2971   0.4173   0.4410
     0.4657   0.6570   0.7484   0.8309   0.8550   0.8917   0.9215   0.9381
     0.9716   1.0070   1.1408   1.1587   1.2810   1.3065   1.4046   1.4521
     1.5995   1.7282   1.8469   1.9421   1.9877   2.0427   2.1469   2.1624
     2.2243   2.3021   2.4371   2.4823   2.5159   2.5937   2.6760   2.8807
     2.9354   2.9952   3.0170   3.0340   3.0839   3.1423   3.1981   3.2279
     3.2616   3.2818   3.3046   3.3512   3.3954   3.4836   3.5412   3.6390
     3.6993   3.7521   3.7963   3.8421   3.8594   3.9014   3.9405   4.0288
     4.0622   4.0834   4.1580   4.2093   4.2316   4.2935   4.3359   4.3967
     4.4798   4.5271   4.5911   4.6224   4.6365   4.6723   4.7306   4.7621
     4.7771   4.8231

          k = 0.5000-0.1925 0.2308 ( 96076 PWs)   bands (ev):

  -113.7631-113.7566-113.7564-113.5659 -71.2348 -71.2335 -71.2279 -71.2276
   -71.2275 -71.2272 -71.0809 -71.0785 -71.0659 -71.0596 -71.0595 -70.7859
   -23.4292 -20.2008 -18.2455 -18.2234 -18.1619 -18.1384 -17.3385 -17.3331
   -17.3262 -17.3209 -16.9107 -16.9036 -16.8980 -16.8915 -16.7780 -16.7422
   -16.6493 -16.6312 -16.6259 -16.6219 -16.6167 -16.6143 -16.6119 -16.6108
   -16.6061 -16.6010 -16.5769 -16.5695 -16.5161 -16.4698 -15.8167 -15.7732
   -15.7188 -15.5612 -15.5075 -15.4841 -15.4393 -15.3175 -15.2822 -15.0673
[...]
     4.1271   4.1511   4.1911   4.2175   4.2366   4.3069   4.3483   4.3635
     4.4354   4.4528   4.4973   4.5259   4.5528   4.5757   4.6366   4.6801
     4.7222   4.7666

          k =-0.1667 0.3849 0.2308 ( 96066 PWs)   bands (ev):

  -113.7631-113.7566-113.7564-113.5659 -71.2348 -71.2335 -71.2279 -71.2276
   -71.2275 -71.2272 -71.0809 -71.0785 -71.0659 -71.0596 -71.0595 -70.7859
   -23.4292 -20.2008 -18.2696 -18.1908 -18.1732 -18.1340 -17.3397 -17.3375
   -17.3245 -17.3183 -16.9073 -16.9058 -16.8916 -16.8848 -16.8211 -16.6905
   -16.6671 -16.6306 -16.6252 -16.6223 -16.6169 -16.6144 -16.6128 -16.6076
   -16.6071 -16.6009 -16.5818 -16.5499 -16.5353 -16.4636 -15.8293 -15.7867
   -15.7100 -15.6687 -15.4986 -15.3898 -15.3797 -15.3628 -15.2639 -15.0831
   -15.0067 -14.9661 -14.7855 -14.7513 -14.7274 -14.7167 -14.6512 -12.4109
   -12.2364 -12.0864 -12.0325 -11.8817 -10.9057 -10.6700 -10.4016 -10.3471
   -10.1708  -9.3402  -9.1106  -8.9592  -8.9216  -8.7629  -8.5812  -8.3615
    -8.3376  -8.2899  -8.1845  -8.0972  -8.0160  -7.9408  -7.8982  -7.8500
    -7.7770  -7.7448  -7.7212  -7.5125  -7.3479  -7.2402  -7.1769  -7.0473
    -7.0073  -6.6964  -6.6777  -6.6017  -6.5891  -6.4894  -5.9266  -5.8852
    -5.8625  -5.7952  -5.7287  -5.6796  -5.6421  -5.5070  -5.4367  -5.4201
    -5.3851  -5.3477  -5.2822  -5.2581  -5.2469  -5.2134  -5.0799  -5.0549
    -5.0260  -4.9926  -4.9656  -4.8452  -4.8283  -4.7717  -4.5897  -4.5737
    -4.5587  -4.4644  -4.3650  -4.3217  -4.2641  -4.2315  -4.1816  -4.1613
    -4.1340  -4.1136  -3.9992  -3.8873  -3.8527  -3.8355  -3.7687  -3.7279
    -3.6101  -3.5964  -3.5398  -3.5184  -3.4986  -3.4490  -3.4292  -3.4237
    -3.3837  -3.3516  -3.3156  -3.2927  -3.2710  -3.2186  -3.1668  -3.0711
    -3.0423  -2.9693  -2.9436  -2.9315  -2.9118  -2.8154  -2.7168  -2.6681
    -0.4960  -0.4714  -0.3578  -0.3196   0.1974   0.3460   0.4012   0.4219
     0.4499   0.6891   0.7614   0.7807   0.8594   0.9019   0.9145   0.9329
     0.9587   0.9719   1.0033   1.1651   1.3092   1.3546   1.4341   1.4622
     1.6098   1.7082   1.8533   1.8944   1.9233   2.1145   2.1484   2.1624
     2.2550   2.3444   2.4634   2.5353   2.5499   2.6477   2.7012   2.8219
     2.9114   2.9369   2.9762   3.0103   3.0699   3.0925   3.1610   3.2149
     3.2811   3.3526   3.3784   3.4155   3.4422   3.5103   3.5530   3.5688
     3.6240   3.7051   3.7652   3.7966   3.8772   3.9151   3.9904   4.0599
     4.0893   4.1604   4.1926   4.2375   4.2614   4.3149   4.3453   4.3811
     4.4190   4.4415   4.5059   4.5070   4.5541   4.6138   4.6504   4.6961
     4.7364   4.7763

          k =-0.2500-0.1443 0.2308 ( 96098 PWs)   bands (ev):

  -113.7631-113.7566-113.7564-113.5659 -71.2348 -71.2335 -71.2279 -71.2276
   -71.2275 -71.2272 -71.0809 -71.0785 -71.0659 -71.0596 -71.0595 -70.7859
   -23.4292 -20.2008 -18.2923 -18.1755 -18.1550 -18.1413 -17.3441 -17.3378
   -17.3301 -17.3109 -16.9086 -16.8885 -16.8854 -16.8733 -16.8645 -16.6775
   -16.6447 -16.6435 -16.6269 -16.6232 -16.6192 -16.6143 -16.6132 -16.6065
   -16.6050 -16.6007 -16.5851 -16.5395 -16.5044 -16.4946 -15.8306 -15.7966
   -15.7809 -15.7314 -15.4248 -15.4140 -15.3535 -15.2979 -15.2358 -15.0770
   -15.0671 -15.0143 -14.7541 -14.7493 -14.7213 -14.6829 -14.6338 -12.5113
   -12.2364 -12.0432 -11.9528 -11.9361 -10.9072 -10.7440 -10.3649 -10.2623
   -10.2479  -9.3384  -9.1515  -8.9525  -8.8765  -8.8646  -8.5783  -8.3055
    -8.2795  -8.2395  -8.2209  -8.0868  -7.9785  -7.9424  -7.9217  -7.7547
    -7.7278  -7.6882  -7.6522  -7.4983  -7.4508  -7.2385  -7.0621  -7.0549
    -7.0115  -6.7603  -6.7320  -6.6951  -6.6730  -6.5095  -5.9750  -5.9566
    -5.9403  -5.7833  -5.7415  -5.6867  -5.6521  -5.4720  -5.4442  -5.4159
    -5.3990  -5.3608  -5.3024  -5.2552  -5.2360  -5.2133  -5.0535  -5.0248
    -5.0072  -5.0028  -4.9618  -4.7867  -4.7628  -4.7260  -4.6049  -4.5870
    -4.5755  -4.4364  -4.3765  -4.3192  -4.2970  -4.2677  -4.2368  -4.1945
    -4.1768  -4.1237  -4.0350  -3.8715  -3.8434  -3.8249  -3.7534  -3.6674
    -3.6203  -3.6038  -3.5641  -3.5159  -3.4609  -3.4574  -3.4258  -3.4192
    -3.3796  -3.3659  -3.3249  -3.2900  -3.2580  -3.2472  -3.2063  -3.0259
    -2.9800  -2.9499  -2.9209  -2.8956  -2.8088  -2.7716  -2.7266  -2.6432
    -0.6181  -0.4254  -0.4041  -0.3029   0.2669   0.3327   0.3592   0.4823
     0.5675   0.5939   0.6874   0.7340   0.7597   0.8629   0.9042   0.9170
     0.9528   0.9800   1.0236   1.2652   1.3132   1.3478   1.4300   1.5083
     1.5938   1.7404   1.7784   1.8410   1.8924   2.1310   2.1755   2.2167
     2.2645   2.3709   2.4975   2.5627   2.6224   2.6496   2.7251   2.8434
     2.8931   2.9286   2.9732   3.0003   3.0365   3.0965   3.1182   3.1364
     3.2236   3.3301   3.3716   3.4527   3.5050   3.5271   3.5515   3.6368
     3.6979   3.7106   3.8087   3.8702   3.8881   3.9509   3.9647   4.0181
     4.0566   4.0970   4.1413   4.2017   4.2308   4.2577   4.3096   4.3532
     4.3872   4.4058   4.4668   4.5256   4.5473   4.5855   4.6119   4.6486
     4.6918   4.7071

          k = 0.0000-0.2887-0.2308 ( 96098 PWs)   bands (ev):

  -113.7631-113.7566-113.7564-113.5659 -71.2348 -71.2335 -71.2279 -71.2276
   -71.2275 -71.2272 -71.0809 -71.0785 -71.0659 -71.0596 -71.0595 -70.7859
   -23.4292 -20.2008 -18.2923 -18.1759 -18.1548 -18.1411 -17.3426 -17.3405
   -17.3285 -17.3112 -16.9085 -16.8905 -16.8829 -16.8730 -16.8657 -16.6783
   -16.6456 -16.6431 -16.6258 -16.6221 -16.6195 -16.6147 -16.6134 -16.6065
   -16.6055 -16.6005 -16.5851 -16.5385 -16.5029 -16.4969 -15.8372 -15.7917
   -15.7793 -15.7318 -15.4268 -15.4097 -15.3557 -15.2959 -15.2372 -15.0755
   -15.0693 -15.0140 -14.7542 -14.7496 -14.7208 -14.6831 -14.6336 -12.5117
   -12.2367 -12.0431 -11.9549 -11.9333 -10.9076 -10.7438 -10.3648 -10.2584
   -10.2518  -9.3394  -9.1511  -8.9502  -8.8732  -8.8679  -8.5773  -8.3170
    -8.2690  -8.2368  -8.2288  -8.0788  -7.9896  -7.9411  -7.9163  -7.7615
    -7.7247  -7.6834  -7.6520  -7.5002  -7.4494  -7.2396  -7.0621  -7.0529
    -7.0108  -6.7600  -6.7300  -6.6958  -6.6796  -6.5067  -5.9763  -5.9501
    -5.9421  -5.7793  -5.7490  -5.6857  -5.6542  -5.4635  -5.4497  -5.4237
    -5.3970  -5.3537  -5.3044  -5.2539  -5.2359  -5.2132  -5.0530  -5.0326
    -5.0066  -4.9964  -4.9665  -4.7875  -4.7648  -4.7206  -4.6021  -4.5952
    -4.5706  -4.4384  -4.3801  -4.3284  -4.2900  -4.2654  -4.2176  -4.1912
    -4.1743  -4.1431  -4.0352  -3.8753  -3.8470  -3.8169  -3.7638  -3.6666
    -3.6191  -3.6045  -3.5668  -3.5155  -3.4599  -3.4546  -3.4227  -3.4169
    -3.3773  -3.3643  -3.3272  -3.2896  -3.2621  -3.2457  -3.2054  -3.0258
    -2.9816  -2.9527  -2.9254  -2.8852  -2.8033  -2.7725  -2.7289  -2.6420
    -0.6194  -0.4190  -0.4073  -0.3065   0.2652   0.3369   0.3567   0.4723
     0.5629   0.5963   0.7010   0.7304   0.7603   0.8608   0.9004   0.9227
     0.9568   0.9791   1.0193   1.2659   1.3157   1.3477   1.4298   1.5080
     1.6050   1.7433   1.7658   1.8413   1.8869   2.1339   2.1763   2.2151
     2.2636   2.3693   2.5005   2.5694   2.6036   2.6559   2.7257   2.8699
     2.8840   2.9255   2.9689   2.9984   3.0225   3.0602   3.1041   3.1497
     3.2724   3.3166   3.4007   3.4416   3.5030   3.5320   3.5547   3.6347
     3.6925   3.7294   3.7648   3.8398   3.8750   3.9636   3.9878   4.0110
     4.0552   4.0935   4.1476   4.2257   4.2527   4.2695   4.3115   4.3333
     4.3941   4.4151   4.4545   4.5059   4.5419   4.5995   4.6341   4.6494
     4.6866   4.7554

          k =-0.4167 0.7217 0.2308 ( 96084 PWs)   bands (ev):

  -113.7631-113.7566-113.7564-113.5659 -71.2348 -71.2335 -71.2279 -71.2276
   -71.2275 -71.2272 -71.0809 -71.0785 -71.0659 -71.0596 -71.0595 -70.7859
   -23.4292 -20.2008 -18.2365 -18.2236 -18.1782 -18.1316 -17.3382 -17.3336
   -17.3258 -17.3205 -16.9155 -16.9046 -16.8966 -16.8931 -16.7553 -16.7464
   -16.6672 -16.6272 -16.6260 -16.6230 -16.6159 -16.6143 -16.6109 -16.6089
   -16.6070 -16.6021 -16.5737 -16.5712 -16.5374 -16.4517 -15.8181 -15.7813
   -15.6767 -15.5481 -15.5330 -15.5137 -15.4066 -15.3269 -15.2999 -15.0775
   -14.9870 -14.8633 -14.8541 -14.7981 -14.7336 -14.6890 -14.6782 -12.2799
   -12.2428 -12.2006 -12.0396 -11.8648 -10.9050 -10.5425 -10.5358 -10.3479
   -10.1438  -9.3395  -9.0397  -9.0346  -8.9068  -8.7104  -8.5848  -8.3833
    -8.3552  -8.3324  -8.2370  -8.0565  -7.9610  -7.9427  -7.9345  -7.8816
    -7.8481  -7.7856  -7.7668  -7.5196  -7.2386  -7.2077  -7.1904  -7.1782
    -7.0186  -6.6666  -6.6337  -6.5550  -6.5142  -6.4759  -5.8962  -5.8323
    -5.7983  -5.7594  -5.7385  -5.7106  -5.6312  -5.5689  -5.4275  -5.3983
    -5.3677  -5.3399  -5.2959  -5.2634  -5.2391  -5.1957  -5.1178  -5.0711
    -5.0185  -4.9831  -4.9298  -4.8884  -4.8717  -4.8553  -4.5819  -4.5521
    -4.5222  -4.4958  -4.3620  -4.2848  -4.2517  -4.2278  -4.1742  -4.1375
    -4.1040  -4.0685  -3.9906  -3.9184  -3.9011  -3.8655  -3.7972  -3.7484
    -3.5912  -3.5720  -3.5378  -3.5076  -3.4832  -3.4679  -3.4363  -3.4077
    -3.3899  -3.3668  -3.3099  -3.2680  -3.2353  -3.2129  -3.1592  -3.1309
    -3.0866  -3.0285  -2.9470  -2.9300  -2.8774  -2.8447  -2.8014  -2.6510
    -0.5102  -0.3876  -0.3547  -0.3365   0.1317   0.3371   0.4026   0.4175
     0.4278   0.7280   0.7455   0.8452   0.8576   0.8921   0.9186   0.9404
     0.9859   1.0046   1.0672   1.1720   1.2496   1.3484   1.4078   1.4621
     1.5873   1.6952   1.9131   1.9739   2.0316   2.0546   2.1398   2.1625
     2.2068   2.3004   2.4384   2.4795   2.5125   2.5729   2.6806   2.8255
     2.9145   3.0097   3.0374   3.0871   3.1088   3.1592   3.2204   3.2465
     3.2662   3.2992   3.3089   3.3454   3.3964   3.4766   3.5047   3.5725
     3.7093   3.7263   3.7598   3.8007   3.8202   3.8441   3.9660   4.0390
     4.1112   4.1278   4.1702   4.2247   4.2614   4.3259   4.3421   4.4296
     4.4766   4.5222   4.5554   4.6026   4.6296   4.6712   4.6819   4.7206
     4.7745   4.8151

          k = 0.8333 0.0000-0.2308 ( 96084 PWs)   bands (ev):

  -113.7631-113.7566-113.7564-113.5659 -71.2348 -71.2335 -71.2279 -71.2276
   -71.2275 -71.2272 -71.0809 -71.0785 -71.0659 -71.0596 -71.0595 -70.7859
   -23.4292 -20.2008 -18.2356 -18.2249 -18.1779 -18.1315 -17.3375 -17.3348
   -17.3249 -17.3207 -16.9158 -16.9043 -16.8992 -16.8905 -16.7542 -16.7485
   -16.6668 -16.6287 -16.6243 -16.6223 -16.6150 -16.6139 -16.6122 -16.6092
   -16.6076 -16.6015 -16.5745 -16.5696 -16.5377 -16.4519 -15.8230 -15.7781
   -15.6779 -15.5457 -15.5335 -15.5114 -15.4063 -15.3260 -15.3022 -15.0776
   -14.9872 -14.8623 -14.8564 -14.7976 -14.7332 -14.6848 -14.6820 -12.2864
   -12.2345 -12.2034 -12.0392 -11.8642 -10.9054 -10.5430 -10.5351 -10.3477
   -10.1439  -9.3409  -9.0426  -9.0291  -8.9068  -8.7083  -8.5839  -8.3758
    -8.3677  -8.3362  -8.2349  -8.0563  -7.9604  -7.9488  -7.9255  -7.8850
    -7.8500  -7.7823  -7.7652  -7.5203  -7.2408  -7.2057  -7.1868  -7.1801
    -7.0180  -6.6731  -6.6283  -6.5576  -6.5242  -6.4630  -5.8980  -5.8383
    -5.7874  -5.7632  -5.7386  -5.7069  -5.6302  -5.5690  -5.4297  -5.4112
    -5.3647  -5.3346  -5.2901  -5.2636  -5.2342  -5.2048  -5.1208  -5.0685
    -5.0170  -4.9904  -4.9249  -4.8984  -4.8830  -4.8312  -4.5845  -4.5466
    -4.5259  -4.4980  -4.3645  -4.2921  -4.2429  -4.2233  -4.1675  -4.1359
    -4.1097  -4.0717  -3.9916  -3.9222  -3.9013  -3.8509  -3.8220  -3.7451
    -3.5923  -3.5730  -3.5381  -3.5057  -3.4797  -3.4685  -3.4342  -3.4081
    -3.3883  -3.3668  -3.3112  -3.2650  -3.2348  -3.2162  -3.1564  -3.1289
    -3.0925  -3.0308  -2.9451  -2.9178  -2.8684  -2.8543  -2.8033  -2.6493
    -0.5093  -0.3878  -0.3542  -0.3397   0.1337   0.3451   0.3903   0.4065
     0.4341   0.7273   0.7443   0.8439   0.8581   0.9062   0.9148   0.9391
     0.9858   1.0030   1.0661   1.1692   1.2534   1.3453   1.4057   1.4683
     1.5963   1.6923   1.9191   1.9437   2.0354   2.0651   2.1418   2.1690
     2.2013   2.3040   2.4533   2.4675   2.5047   2.5638   2.6854   2.8228
     2.9135   2.9971   3.0456   3.0792   3.1183   3.1509   3.2121   3.2608
     3.2674   3.2924   3.3180   3.3364   3.4214   3.4399   3.5628   3.5769
     3.6597   3.7041   3.7662   3.7764   3.8401   3.8954   3.9765   4.0178
     4.0890   4.1339   4.1707   4.2260   4.2875   4.3134   4.3630   4.3843
     4.4746   4.5231   4.5651   4.5880   4.6362   4.6584   4.7035   4.7280
     4.8073   4.8364

          k =-0.4167-0.2406 0.2308 ( 96042 PWs)   bands (ev):

  -113.7631-113.7566-113.7564-113.5659 -71.2348 -71.2335 -71.2279 -71.2276
   -71.2275 -71.2272 -71.0809 -71.0785 -71.0659 -71.0596 -71.0595 -70.7859
   -23.4292 -20.2008 -18.2574 -18.2128 -18.1558 -18.1426 -17.3390 -17.3342
   -17.3258 -17.3204 -16.9077 -16.9044 -16.8962 -16.8875 -16.7997 -16.7281
   -16.6390 -16.6378 -16.6263 -16.6230 -16.6173 -16.6143 -16.6116 -16.6080
   -16.6060 -16.6028 -16.5796 -16.5661 -16.4983 -16.4885 -15.8177 -15.7637
   -15.7476 -15.5993 -15.4784 -15.4672 -15.4260 -15.3234 -15.2723 -15.0562
   -15.0476 -14.9038 -14.7852 -14.7682 -14.7649 -14.6958 -14.6620 -12.3586
   -12.2410 -12.1716 -11.9426 -11.9252 -10.9055 -10.6293 -10.4898 -10.2385
   -10.2239  -9.3390  -9.0893  -9.0141  -8.8206  -8.8111  -8.5834  -8.3505
    -8.3327  -8.3016  -8.2957  -8.0084  -7.9744  -7.9495  -7.9236  -7.8635
    -7.8467  -7.7479  -7.7263  -7.5148  -7.3033  -7.2380  -7.1340  -7.0826
    -7.0798  -6.6887  -6.6703  -6.5724  -6.5366  -6.4854  -5.9158  -5.9037
    -5.8143  -5.7922  -5.7343  -5.6722  -5.6317  -5.5298  -5.4348  -5.4093
    -5.3664  -5.3518  -5.2992  -5.2648  -5.2537  -5.2092  -5.1031  -5.0635
    -5.0056  -4.9876  -4.9268  -4.8549  -4.8334  -4.8155  -4.5909  -4.5729
    -4.5538  -4.4875  -4.3614  -4.2809  -4.2684  -4.2339  -4.1939  -4.1500
    -4.1242  -4.0766  -3.9991  -3.8988  -3.8794  -3.8500  -3.7745  -3.7356
    -3.5890  -3.5805  -3.5277  -3.5070  -3.4757  -3.4613  -3.4373  -3.4222
    -3.3966  -3.3555  -3.3223  -3.2782  -3.2685  -3.2160  -3.1489  -3.0998
    -3.0348  -3.0143  -2.9585  -2.9266  -2.8938  -2.7881  -2.7696  -2.7269
    -0.4611  -0.4409  -0.4071  -0.3009   0.2413   0.2616   0.3976   0.4615
     0.5465   0.5731   0.7687   0.7957   0.8485   0.8866   0.9118   0.9265
     0.9738   0.9986   1.1589   1.2171   1.2424   1.2829   1.4218   1.4568
     1.6009   1.7552   1.8065   1.9171   1.9580   2.0520   2.1543   2.1605
     2.2359   2.3181   2.4454   2.4896   2.5247   2.6035   2.6804   2.8901
     2.9469   2.9685   2.9969   3.0340   3.0813   3.1060   3.1786   3.2250
     3.2486   3.2661   3.3121   3.3773   3.4070   3.5022   3.5553   3.6651
     3.7220   3.7733   3.7927   3.8227   3.8657   3.9286   3.9561   3.9730
     4.0573   4.0992   4.1587   4.1813   4.2266   4.2995   4.3371   4.3738
     4.4995   4.5142   4.5679   4.6106   4.6510   4.6775   4.7168   4.7511
     4.7831   4.8201

          k = 0.0000-0.4811-0.2308 ( 96042 PWs)   bands (ev):

  -113.7631-113.7566-113.7564-113.5659 -71.2348 -71.2335 -71.2279 -71.2276
   -71.2275 -71.2272 -71.0809 -71.0785 -71.0659 -71.0596 -71.0595 -70.7859
   -23.4292 -20.2008 -18.2573 -18.2133 -18.1556 -18.1423 -17.3381 -17.3359
   -17.3240 -17.3214 -16.9082 -16.9038 -16.8988 -16.8849 -16.8003 -16.7289
   -16.6411 -16.6369 -16.6245 -16.6220 -16.6162 -16.6143 -16.6126 -16.6088
   -16.6071 -16.6016 -16.5797 -16.5652 -16.4966 -16.4907 -15.8235 -15.7583
   -15.7506 -15.5969 -15.4810 -15.4606 -15.4271 -15.3233 -15.2740 -15.0546
   -15.0498 -14.9042 -14.7873 -14.7697 -14.7616 -14.6946 -14.6626 -12.3606
   -12.2406 -12.1711 -11.9446 -11.9222 -10.9060 -10.6291 -10.4896 -10.2346
   -10.2278  -9.3409  -9.0886  -9.0116  -8.8198  -8.8098  -8.5816  -8.3595
    -8.3255  -8.3145  -8.2897  -8.0043  -7.9802  -7.9450  -7.9223  -7.8692
    -7.8469  -7.7428  -7.7250  -7.5159  -7.3020  -7.2398  -7.1334  -7.0818
    -7.0772  -6.6945  -6.6694  -6.5706  -6.5490  -6.4717  -5.9196  -5.9014
    -5.8114  -5.7924  -5.7354  -5.6737  -5.6274  -5.5245  -5.4431  -5.4194
    -5.3711  -5.3412  -5.2815  -5.2692  -5.2549  -5.2165  -5.1135  -5.0544
    -5.0081  -4.9893  -4.9308  -4.8555  -4.8429  -4.7964  -4.5938  -4.5732
    -4.5520  -4.4912  -4.3659  -4.2832  -4.2705  -4.2192  -4.1809  -4.1468
    -4.1260  -4.0950  -3.9970  -3.9027  -3.8750  -3.8481  -3.7986  -3.7321
    -3.5877  -3.5784  -3.5257  -3.5077  -3.4744  -3.4577  -3.4367  -3.4246
    -3.3971  -3.3561  -3.3226  -3.2768  -3.2616  -3.2169  -3.1482  -3.1060
    -3.0374  -3.0091  -2.9564  -2.9277  -2.8835  -2.7864  -2.7707  -2.7267
    -0.4562  -0.4457  -0.4067  -0.3040   0.2484   0.2630   0.3827   0.4577
     0.5454   0.5726   0.7677   0.7986   0.8510   0.8880   0.9174   0.9284
     0.9694   0.9983   1.1562   1.2115   1.2468   1.2835   1.4228   1.4615
     1.6105   1.7636   1.7949   1.8940   1.9603   2.0598   2.1555   2.1635
     2.2389   2.3190   2.4567   2.4820   2.5168   2.5940   2.6864   2.8856
     2.9355   2.9599   3.0060   3.0301   3.0627   3.1151   3.1703   3.2271
     3.2512   3.2851   3.3064   3.3699   3.4374   3.5183   3.5715   3.6437
     3.7057   3.7307   3.8036   3.8186   3.8832   3.9444   3.9605   3.9831
     4.0474   4.1063   4.1544   4.1744   4.2029   4.2869   4.3544   4.4245
     4.4832   4.5403   4.5600   4.6004   4.6221   4.6861   4.7073   4.7476
     4.7785   4.7932

     the Fermi energy is    -1.8595 ev

!    total energy              =   -2934.19290771 Ry
     estimated scf accuracy    <          5.7E-09 Ry
     smearing contrib. (-TS)   =      -0.00000000 Ry
     internal energy E=F+TS    =   -2934.19290771 Ry

     The total energy is F=E-TS. E is the sum of the following terms:
     one-electron contribution =  -17170.08481542 Ry
     hartree contribution      =    8641.96938720 Ry
     xc contribution           =    -580.73319178 Ry
     ewald contribution        =    6174.98880956 Ry
     Dispersion Correction     =      -0.33309727 Ry

     convergence has been achieved in  15 iterations

     Writing all to output data dir ./test.save/ :
     XML data file, charge density, pseudopotentials, collected wavefunctions
 
     init_run     :     17.22s CPU     17.68s WALL (       1 calls)
     electrons    :   1014.12s CPU   1031.73s WALL (       1 calls)

     Called by init_run:
     wfcinit      :     16.03s CPU     16.30s WALL (       1 calls)
     potinit      :      0.06s CPU      0.09s WALL (       1 calls)
     hinit0       :      0.08s CPU      0.10s WALL (       1 calls)

     Called by electrons:
     c_bands      :    909.23s CPU    921.64s WALL (      15 calls)
     sum_band     :     98.96s CPU    102.51s WALL (      15 calls)
     v_of_rho     :      0.55s CPU      0.67s WALL (      16 calls)
     newd         :      5.55s CPU      7.14s WALL (      16 calls)
     mix_rho      :      0.09s CPU      0.11s WALL (      15 calls)
     energy_londo :      0.01s CPU      0.01s WALL (       1 calls)

     Called by c_bands:
     init_us_2    :     17.69s CPU     17.80s WALL (    1674 calls)
     cegterg      :    865.16s CPU    876.51s WALL (     810 calls)

     Called by *egterg:
     cdiaghg      :    128.97s CPU    130.62s WALL (    6618 calls)
     h_psi        :    415.10s CPU    421.56s WALL (    6672 calls)
     s_psi        :     82.43s CPU     82.88s WALL (    6672 calls)
     g_psi        :      1.95s CPU      1.96s WALL (    5808 calls)

     Called by h_psi:
     h_psi:calbec :     90.36s CPU     91.44s WALL (    6672 calls)
     vloc_psi     :    235.76s CPU    239.23s WALL (    6672 calls)
     add_vuspsi   :     85.16s CPU     86.98s WALL (    6672 calls)

     General routines
     calbec       :    120.35s CPU    121.88s WALL (    7482 calls)
     fft          :      0.51s CPU      0.59s WALL (     206 calls)
     ffts         :      0.02s CPU      0.03s WALL (      31 calls)
     fftw         :    228.40s CPU    231.85s WALL ( 1260124 calls)
     interpolate  :      0.03s CPU      0.05s WALL (      16 calls)
 
     Parallel routines
 
     PWSCF        :   1040.28s CPU   1064.05s WALL

 
   This run was terminated on:   9:24:13  19Feb2026            

=------------------------------------------------------------------------------=
   JOB DONE.
=------------------------------------------------------------------------------=
