
     Program BANDS v.7.3.1 starts on 16Dec2025 at  8:32:21 

     This program is part of the open-source Quantum ESPRESSO suite
     for quantum simulation of materials; please cite
         "P. Giannozzi et al., J. Phys.:Condens. Matter 21 395502 (2009);
         "P. Giannozzi et al., J. Phys.:Condens. Matter 29 465901 (2017);
         "P. Giannozzi et al., J. Chem. Phys. 152 154105 (2020);
          URL http://www.quantum-espresso.org", 
     in publications or presentations arising from this work. More details at
     http://www.quantum-espresso.org/quote

     Parallel version (MPI & OpenMP), running on      64 processor cores
     Number of MPI processes:                64
     Threads/MPI process:                     1

     MPI processes distributed on     1 nodes
     R & G space division:  proc/nbgrp/npool/nimage =      64
     417844 MiB available memory on the printing compute node when the environment starts
 

     Reading xml data from directory:

     ./test.save/

     IMPORTANT: XC functional enforced from input :
     Exchange-correlation= PBE
                           (   1   4   3   4   0   0   0)
     Any further DFT definition will be discarded
     Please, verify this is what you really want

 
     Parallelization info
     --------------------
     sticks:   dense  smooth     PW     G-vecs:    dense   smooth      PW
     Min         180      90     23                33956    12002    1631
     Max         181      91     24                33969    12012    1652
     Sum       11557    5773   1531              2173495   768463  105205
 
     Using Slab Decomposition
 

     negative rho (up, down):  3.042E-03 0.000E+00
     Reading collected, re-writing distributed wavefunctions
     high-symmetry point:  0.0000 0.0000 0.0000   x coordinate   0.0000
     high-symmetry point:  0.5000 0.2887 0.0000   x coordinate   0.5774
     high-symmetry point:  0.3333 0.5773 0.0000   x coordinate   0.9107
     high-symmetry point:  0.0000 0.0000 0.0000   x coordinate   1.5773
     high-symmetry point:  0.0000 0.0000 0.2308   x coordinate   1.8081
     high-symmetry point:  0.5000 0.2887 0.2308   x coordinate   2.3854
     high-symmetry point:  0.3333 0.5773 0.2308   x coordinate   2.7187
     high-symmetry point:  0.0000 0.0000 0.2308   x coordinate   3.3853
     high-symmetry point:  0.5000 0.2887 0.2308   x coordinate   3.9627
     high-symmetry point:  0.5000 0.2887 0.0000   x coordinate   4.1935
     high-symmetry point:  0.3333 0.5773 0.0000   x coordinate   4.5268
     high-symmetry point:  0.3333 0.5773 0.2308   x coordinate   4.7577

     Plottable bands (eV) written to file bands.dat.gnu
     Bands written to file bands.dat

 **************************************************************************

                    xk=(   0.00000,   0.00000,   0.00000  )

     point group C_1 (1)    
     there are  1 classes
     the character table:

       E    
A      1.00

     the symmetry operations in each class and the name of the first element:

     E        1
                                                                 

     Band symmetry, C_1 (1)     point group:

     e(  1 -  4) =   -114.16839  eV     4   -->   4 A              
     e(  5 - 12) =    -71.64071  eV     8   -->   8 A              
     e( 13 - 16) =    -71.46824  eV     4   -->   4 A              
     e( 17 - 17) =    -18.72203  eV     1   --> A              
     e( 18 - 19) =    -18.55604  eV     2   -->   2 A              
     e( 20 - 20) =    -18.55585  eV     1   --> A              
     e( 21 - 22) =    -17.74976  eV     2   -->   2 A              
     e( 23 - 23) =    -17.74957  eV     1   --> A              
     e( 24 - 24) =    -17.70743  eV     1   --> A              
     e( 25 - 26) =    -17.32180  eV     2   -->   2 A              
     e( 27 - 29) =    -17.27484  eV     3   -->   3 A              
     e( 30 - 32) =    -17.06225  eV     3   -->   3 A              
     e( 33 - 34) =    -17.03076  eV     2   -->   2 A              
     e( 35 - 37) =    -17.03048  eV     3   -->   3 A              
     e( 38 - 40) =    -17.01643  eV     3   -->   3 A              
     e( 41 - 41) =    -17.00036  eV     1   --> A              
     e( 42 - 44) =    -16.91898  eV     3   -->   3 A              
     e( 45 - 45) =    -16.23706  eV     1   --> A              
     e( 46 - 47) =    -16.23690  eV     2   -->   2 A              
     e( 48 - 49) =    -15.78002  eV     2   -->   2 A              
     e( 50 - 50) =    -15.77982  eV     1   --> A              
     e( 51 - 52) =    -15.62052  eV     2   -->   2 A              
     e( 53 - 55) =    -15.50321  eV     3   -->   3 A              
     e( 56 - 58) =    -15.14754  eV     3   -->   3 A              
     e( 59 - 60) =    -15.02641  eV     2   -->   2 A              
     e( 61 - 61) =    -13.01787  eV     1   --> A              
     e( 62 - 64) =    -12.36254  eV     3   -->   3 A              
     e( 65 - 65) =    -11.22633  eV     1   --> A              
     e( 66 - 68) =    -10.69159  eV     3   -->   3 A              
     e( 69 - 69) =     -9.59808  eV     1   --> A              
     e( 70 - 72) =     -9.32770  eV     3   -->   3 A              
     e( 73 - 75) =     -8.62655  eV     3   -->   3 A              
     e( 76 - 77) =     -8.55347  eV     2   -->   2 A              
     e( 78 - 80) =     -8.31033  eV     3   -->   3 A              
     e( 81 - 83) =     -8.02539  eV     3   -->   3 A              
     e( 84 - 85) =     -7.95625  eV     2   -->   2 A              
     e( 86 - 86) =     -7.39243  eV     1   --> A              
     e( 87 - 88) =     -7.39228  eV     2   -->   2 A              
     e( 89 - 89) =     -7.29199  eV     1   --> A              
     e( 90 - 90) =     -7.26728  eV     1   --> A              
     e( 91 - 91) =     -7.26715  eV     1   --> A              
     e( 92 - 92) =     -7.26702  eV     1   --> A              
     e( 93 - 93) =     -6.44410  eV     1   --> A              
     e( 94 - 95) =     -6.44397  eV     2   -->   2 A              
     e( 96 - 98) =     -6.16223  eV     3   -->   3 A              
     e( 99 - 99) =     -6.11049  eV     1   --> A              
     e(100 -100) =     -5.85835  eV     1   --> A              
     e(101 -101) =     -5.85823  eV     1   --> A              
     e(102 -102) =     -5.85810  eV     1   --> A              
     e(103 -103) =     -5.79879  eV     1   --> A              
     e(104 -104) =     -5.76330  eV     1   --> A              
     e(105 -105) =     -5.76319  eV     1   --> A              
     e(106 -108) =     -5.63789  eV     3   -->   3 A              
     e(109 -111) =     -5.42664  eV     3   -->   3 A              
     e(112 -113) =     -5.37348  eV     2   -->   2 A              
     e(114 -116) =     -5.13293  eV     3   -->   3 A              
     e(117 -119) =     -4.98358  eV     3   -->   3 A              
     e(120 -120) =     -4.74626  eV     1   --> A              
     e(121 -121) =     -4.74615  eV     1   --> A              
     e(122 -122) =     -4.72268  eV     1   --> A              
     e(123 -125) =     -4.72209  eV     3   -->   3 A              
     e(126 -128) =     -4.66273  eV     3   -->   3 A              
     e(129 -130) =     -4.28051  eV     2   -->   2 A              
     e(131 -131) =     -4.28028  eV     1   --> A              
     e(132 -134) =     -4.11587  eV     3   -->   3 A              
     e(135 -135) =     -3.99080  eV     1   --> A              
     e(136 -137) =     -3.93615  eV     2   -->   2 A              
     e(138 -138) =     -3.85040  eV     1   --> A              
     e(139 -140) =     -3.85028  eV     2   -->   2 A              
     e(141 -143) =     -3.78281  eV     3   -->   3 A              
     e(144 -146) =     -3.71663  eV     3   -->   3 A              
     e(147 -148) =     -3.56451  eV     2   -->   2 A              
     e(149 -150) =     -3.37766  eV     2   -->   2 A              
     e(151 -151) =     -3.37733  eV     1   --> A              
     e(152 -153) =     -3.19942  eV     2   -->   2 A              
     e(154 -154) =     -3.19923  eV     1   --> A              
     e(155 -156) =     -2.96115  eV     2   -->   2 A              
     e(157 -157) =     -1.26624  eV     1   --> A              
     e(158 -160) =     -0.79402  eV     3   -->   3 A              
     e(161 -161) =     -0.28160  eV     1   --> A              
     e(162 -164) =      0.06031  eV     3   -->   3 A              
     e(165 -165) =      0.09387  eV     1   --> A              
     e(166 -166) =      0.09403  eV     1   --> A              
     e(167 -167) =      0.09413  eV     1   --> A              
     e(168 -170) =      0.35622  eV     3   -->   3 A              
     e(171 -172) =      0.56489  eV     2   -->   2 A              
     e(173 -175) =      0.57277  eV     3   -->   3 A              
     e(176 -176) =      0.85990  eV     1   --> A              
     e(177 -177) =      1.02908  eV     1   --> A              
     e(178 -179) =      1.02928  eV     2   -->   2 A              
     e(180 -180) =      1.10059  eV     1   --> A              
     e(181 -182) =      1.34907  eV     2   -->   2 A              
     e(183 -183) =      1.34927  eV     1   --> A              
     e(184 -184) =      1.79643  eV     1   --> A              
     e(185 -185) =      1.79663  eV     1   --> A              
     e(186 -186) =      1.91485  eV     1   --> A              
     e(187 -187) =      1.94682  eV     1   --> A              
     e(188 -189) =      1.94694  eV     2   -->   2 A              
     e(190 -191) =      2.18327  eV     2   -->   2 A              
     e(192 -192) =      2.18340  eV     1   --> A              
     e(193 -193) =      2.46439  eV     1   --> A              
     e(194 -194) =      2.56248  eV     1   --> A              
     e(195 -195) =      2.56266  eV     1   --> A              
     e(196 -196) =      2.59312  eV     1   --> A              
     e(197 -198) =      2.59328  eV     2   -->   2 A              
     e(199 -199) =      2.70406  eV     1   --> A              
     e(200 -202) =      2.75741  eV     3   -->   3 A              
     e(203 -203) =      3.00900  eV     1   --> A              
     e(204 -204) =      3.00912  eV     1   --> A              
     e(205 -205) =      3.00930  eV     1   --> A              
     e(206 -206) =      3.06769  eV     1   --> A              
     e(207 -207) =      3.33754  eV     1   --> A              
     e(208 -210) =      3.40438  eV     3   -->   3 A              
     e(211 -211) =      3.67093  eV     1   --> A              
     e(212 -213) =      3.67104  eV     2   -->   2 A              
     e(214 -214) =      3.68021  eV     1   --> A              
     e(215 -217) =      3.75088  eV     3   -->   3 A              
     e(218 -218) =      3.88837  eV     1   --> A              
     e(219 -219) =      3.88873  eV     1   --> A              
     e(220 -222) =      3.92620  eV     3   -->   3 A              
     e(223 -223) =      3.99947  eV     1   --> A              
     e(224 -226) =      4.07692  eV     3   -->   3 A              
     e(227 -228) =      4.16562  eV     2   -->   2 A              
     e(229 -229) =      4.16581  eV     1   --> A              
     e(230 -230) =      4.19659  eV     1   --> A              
     e(231 -233) =      4.25545  eV     3   -->   3 A              
     e(234 -236) =      4.51225  eV     3   -->   3 A              
     e(237 -239) =      4.64119  eV     3   -->   3 A              
     e(240 -241) =      4.65474  eV     2   -->   2 A              
     e(242 -242) =      4.65491  eV     1   --> A              
     e(243 -243) =      4.82475  eV     1   --> A              
     e(244 -245) =      4.82494  eV     2   -->   2 A              
     e(246 -246) =      4.90434  eV     1   --> A              
     e(247 -247) =      5.14395  eV     1   --> A              
     e(248 -248) =      5.14634  eV     1   --> A              
     e(249 -249) =      5.15652  eV     1   --> A              
     e(250 -250) =      5.15761  eV     1   --> A              

 **************************************************************************

 **************************************************************************

                    xk=(   0.02500,   0.01443,   0.00000  )

     Band symmetry, C_1 (1)     point group:

     e(  1 -  4) =   -114.16839  eV     4   -->   4 A              
     e(  5 - 12) =    -71.64071  eV     8   -->   8 A              
     e( 13 - 16) =    -71.46824  eV     4   -->   4 A              
     e( 17 - 17) =    -18.72180  eV     1   --> A              
     e( 18 - 18) =    -18.55625  eV     1   --> A              
     e( 19 - 19) =    -18.55603  eV     1   --> A              
     e( 20 - 20) =    -18.55589  eV     1   --> A              
     e( 21 - 22) =    -17.74972  eV     2   -->   2 A              
     e( 23 - 23) =    -17.74950  eV     1   --> A              
     e( 24 - 24) =    -17.70757  eV     1   --> A              
     e( 25 - 25) =    -17.32170  eV     1   --> A              
     e( 26 - 26) =    -17.32130  eV     1   --> A              
     e( 27 - 28) =    -17.27513  eV     2   -->   2 A              
     e( 29 - 29) =    -17.27494  eV     1   --> A              
     e( 30 - 30) =    -17.06243  eV     1   --> A              
     e( 31 - 32) =    -17.06212  eV     2   -->   2 A              
     e( 33 - 34) =    -17.03076  eV     2   -->   2 A              
     e( 35 - 37) =    -17.03047  eV     3   -->   3 A              
     e( 38 - 40) =    -17.01645  eV     3   -->   3 A              
     e( 41 - 41) =    -17.00035  eV     1   --> A              
     e( 42 - 42) =    -16.91933  eV     1   --> A              
     e( 43 - 44) =    -16.91889  eV     2   -->   2 A              
     e( 45 - 45) =    -16.23668  eV     1   --> A              
     e( 46 - 46) =    -16.23649  eV     1   --> A              
     e( 47 - 47) =    -16.23591  eV     1   --> A              
     e( 48 - 48) =    -15.78059  eV     1   --> A              
     e( 49 - 49) =    -15.78040  eV     1   --> A              
     e( 50 - 50) =    -15.77978  eV     1   --> A              
     e( 51 - 51) =    -15.62143  eV     1   --> A              
     e( 52 - 52) =    -15.62077  eV     1   --> A              
     e( 53 - 53) =    -15.50297  eV     1   --> A              
     e( 54 - 54) =    -15.50281  eV     1   --> A              
     e( 55 - 55) =    -15.50225  eV     1   --> A              
     e( 56 - 57) =    -15.14767  eV     2   -->   2 A              
     e( 58 - 58) =    -15.14736  eV     1   --> A              
     e( 59 - 59) =    -15.02712  eV     1   --> A              
     e( 60 - 60) =    -15.02659  eV     1   --> A              
     e( 61 - 61) =    -13.01669  eV     1   --> A              
     e( 62 - 62) =    -12.36340  eV     1   --> A              
     e( 63 - 64) =    -12.36237  eV     2   -->   2 A              
     e( 65 - 65) =    -11.22557  eV     1   --> A              
     e( 66 - 66) =    -10.69241  eV     1   --> A              
     e( 67 - 68) =    -10.69126  eV     2   -->   2 A              
     e( 69 - 69) =     -9.59767  eV     1   --> A              
     e( 70 - 70) =     -9.32793  eV     1   --> A              
     e( 71 - 71) =     -9.32715  eV     1   --> A              
     e( 72 - 72) =     -9.32702  eV     1   --> A              
     e( 73 - 73) =     -8.62789  eV     1   --> A              
     e( 74 - 74) =     -8.62703  eV     1   --> A              
     e( 75 - 75) =     -8.62656  eV     1   --> A              
     e( 76 - 76) =     -8.55446  eV     1   --> A              
     e( 77 - 77) =     -8.55268  eV     1   --> A              
     e( 78 - 78) =     -8.31151  eV     1   --> A              
     e( 79 - 79) =     -8.31092  eV     1   --> A              
     e( 80 - 80) =     -8.31046  eV     1   --> A              
     e( 81 - 81) =     -8.02652  eV     1   --> A              
     e( 82 - 82) =     -8.02637  eV     1   --> A              
     e( 83 - 83) =     -8.02597  eV     1   --> A              
     e( 84 - 84) =     -7.95781  eV     1   --> A              
     e( 85 - 85) =     -7.95521  eV     1   --> A              
     e( 86 - 86) =     -7.39488  eV     1   --> A              
     e( 87 - 87) =     -7.39410  eV     1   --> A              
     e( 88 - 88) =     -7.39197  eV     1   --> A              
     e( 89 - 89) =     -7.28940  eV     1   --> A              
     e( 90 - 90) =     -7.26543  eV     1   --> A              
     e( 91 - 91) =     -7.26508  eV     1   --> A              
     e( 92 - 92) =     -7.26365  eV     1   --> A              
     e( 93 - 93) =     -6.44340  eV     1   --> A              
     e( 94 - 94) =     -6.44320  eV     1   --> A              
     e( 95 - 95) =     -6.44303  eV     1   --> A              
     e( 96 - 96) =     -6.16249  eV     1   --> A              
     e( 97 - 97) =     -6.16211  eV     1   --> A              
     e( 98 - 98) =     -6.16179  eV     1   --> A              
     e( 99 - 99) =     -6.10970  eV     1   --> A              
     e(100 -100) =     -5.85837  eV     1   --> A              
     e(101 -101) =     -5.85821  eV     1   --> A              
     e(102 -102) =     -5.85790  eV     1   --> A              
     e(103 -103) =     -5.79937  eV     1   --> A              
     e(104 -104) =     -5.76375  eV     1   --> A              
     e(105 -105) =     -5.76239  eV     1   --> A              
     e(106 -108) =     -5.63796  eV     3   -->   3 A              
     e(109 -109) =     -5.42710  eV     1   --> A              
     e(110 -110) =     -5.42648  eV     1   --> A              
     e(111 -111) =     -5.42631  eV     1   --> A              
     e(112 -112) =     -5.37453  eV     1   --> A              
     e(113 -113) =     -5.37395  eV     1   --> A              
     e(114 -114) =     -5.13343  eV     1   --> A              
     e(115 -115) =     -5.13303  eV     1   --> A              
     e(116 -116) =     -5.13264  eV     1   --> A              
     e(117 -117) =     -4.98445  eV     1   --> A              
     e(118 -119) =     -4.98421  eV     2   -->   2 A              
     e(120 -120) =     -4.75342  eV     1   --> A              
     e(121 -121) =     -4.74547  eV     1   --> A              
     e(122 -122) =     -4.72352  eV     1   --> A              
     e(123 -123) =     -4.72210  eV     1   --> A              
     e(124 -124) =     -4.72153  eV     1   --> A              
     e(125 -125) =     -4.71485  eV     1   --> A              
     e(126 -126) =     -4.66184  eV     1   --> A              
     e(127 -127) =     -4.66161  eV     1   --> A              
     e(128 -128) =     -4.66014  eV     1   --> A              
     e(129 -129) =     -4.28016  eV     1   --> A              
     e(130 -130) =     -4.27986  eV     1   --> A              
     e(131 -131) =     -4.27968  eV     1   --> A              
     e(132 -132) =     -4.11565  eV     1   --> A              
     e(133 -133) =     -4.11520  eV     1   --> A              
     e(134 -134) =     -4.11510  eV     1   --> A              
     e(135 -135) =     -3.99135  eV     1   --> A              
     e(136 -136) =     -3.93654  eV     1   --> A              
     e(137 -137) =     -3.93516  eV     1   --> A              
     e(138 -138) =     -3.85069  eV     1   --> A              
     e(139 -139) =     -3.85016  eV     1   --> A              
     e(140 -140) =     -3.84992  eV     1   --> A              
     e(141 -141) =     -3.78323  eV     1   --> A              
     e(142 -142) =     -3.78296  eV     1   --> A              
     e(143 -143) =     -3.78263  eV     1   --> A              
     e(144 -144) =     -3.71754  eV     1   --> A              
     e(145 -145) =     -3.71629  eV     1   --> A              
     e(146 -146) =     -3.71603  eV     1   --> A              
     e(147 -147) =     -3.56734  eV     1   --> A              
     e(148 -148) =     -3.56525  eV     1   --> A              
     e(149 -149) =     -3.37815  eV     1   --> A              
     e(150 -150) =     -3.37788  eV     1   --> A              
     e(151 -151) =     -3.37730  eV     1   --> A              
     e(152 -152) =     -3.20108  eV     1   --> A              
     e(153 -153) =     -3.19925  eV     1   --> A              
     e(154 -154) =     -3.19913  eV     1   --> A              
     e(155 -155) =     -2.96432  eV     1   --> A              
     e(156 -156) =     -2.96204  eV     1   --> A              
     e(157 -157) =     -1.26309  eV     1   --> A              
     e(158 -159) =     -0.79443  eV     2   -->   2 A              
     e(160 -160) =     -0.79282  eV     1   --> A              
     e(161 -161) =     -0.27950  eV     1   --> A              
     e(162 -162) =      0.05731  eV     1   --> A              
     e(163 -163) =      0.05811  eV     1   --> A              
     e(164 -164) =      0.06185  eV     1   --> A              
     e(165 -165) =      0.09531  eV     1   --> A              
     e(166 -166) =      0.09637  eV     1   --> A              
     e(167 -167) =      0.09651  eV     1   --> A              
     e(168 -169) =      0.35599  eV     2   -->   2 A              
     e(170 -170) =      0.35733  eV     1   --> A              
     e(171 -171) =      0.56494  eV     1   --> A              
     e(172 -172) =      0.56513  eV     1   --> A              
     e(173 -173) =      0.57153  eV     1   --> A              
     e(174 -174) =      0.57185  eV     1   --> A              
     e(175 -175) =      0.57291  eV     1   --> A              
     e(176 -176) =      0.85987  eV     1   --> A              
     e(177 -177) =      1.02768  eV     1   --> A              
     e(178 -178) =      1.02840  eV     1   --> A              
     e(179 -179) =      1.02919  eV     1   --> A              
     e(180 -180) =      1.10049  eV     1   --> A              
     e(181 -181) =      1.34867  eV     1   --> A              
     e(182 -182) =      1.34880  eV     1   --> A              
     e(183 -183) =      1.35001  eV     1   --> A              
     e(184 -184) =      1.79426  eV     1   --> A              
     e(185 -185) =      1.79720  eV     1   --> A              
     e(186 -186) =      1.91761  eV     1   --> A              
     e(187 -187) =      1.94324  eV     1   --> A              
     e(188 -189) =      1.94490  eV     2   -->   2 A              
     e(190 -190) =      2.18465  eV     1   --> A              
     e(191 -191) =      2.18482  eV     1   --> A              
     e(192 -192) =      2.18603  eV     1   --> A              
     e(193 -193) =      2.46466  eV     1   --> A              
     e(194 -194) =      2.56153  eV     1   --> A              
     e(195 -195) =      2.56347  eV     1   --> A              
     e(196 -196) =      2.59128  eV     1   --> A              
     e(197 -197) =      2.59277  eV     1   --> A              
     e(198 -198) =      2.59413  eV     1   --> A              
     e(199 -199) =      2.70500  eV     1   --> A              
     e(200 -200) =      2.75641  eV     1   --> A              
     e(201 -201) =      2.75688  eV     1   --> A              
     e(202 -202) =      2.75786  eV     1   --> A              
     e(203 -203) =      3.01017  eV     1   --> A              
     e(204 -204) =      3.01062  eV     1   --> A              
     e(205 -205) =      3.01175  eV     1   --> A              
     e(206 -206) =      3.06811  eV     1   --> A              
     e(207 -207) =      3.33838  eV     1   --> A              
     e(208 -208) =      3.39968  eV     1   --> A              
     e(209 -209) =      3.40419  eV     1   --> A              
     e(210 -210) =      3.40506  eV     1   --> A              
     e(211 -211) =      3.67222  eV     1   --> A              
     e(212 -212) =      3.67358  eV     1   --> A              
     e(213 -213) =      3.67381  eV     1   --> A              
     e(214 -214) =      3.67922  eV     1   --> A              
     e(215 -215) =      3.74356  eV     1   --> A              
     e(216 -217) =      3.74967  eV     2   -->   2 A              
     e(218 -218) =      3.88649  eV     1   --> A              
     e(219 -219) =      3.89024  eV     1   --> A              
     e(220 -220) =      3.92579  eV     1   --> A              
     e(221 -221) =      3.92671  eV     1   --> A              
     e(222 -222) =      3.92974  eV     1   --> A              
     e(223 -223) =      4.00254  eV     1   --> A              
     e(224 -224) =      4.07148  eV     1   --> A              
     e(225 -225) =      4.07435  eV     1   --> A              
     e(226 -226) =      4.07673  eV     1   --> A              
     e(227 -227) =      4.15803  eV     1   --> A              
     e(228 -228) =      4.16198  eV     1   --> A              
     e(229 -229) =      4.16569  eV     1   --> A              
     e(230 -230) =      4.19720  eV     1   --> A              
     e(231 -231) =      4.26220  eV     1   --> A              
     e(232 -232) =      4.26243  eV     1   --> A              
     e(233 -233) =      4.27568  eV     1   --> A              
     e(234 -234) =      4.49913  eV     1   --> A              
     e(235 -235) =      4.50569  eV     1   --> A              
     e(236 -236) =      4.51136  eV     1   --> A              
     e(237 -237) =      4.62067  eV     1   --> A              
     e(238 -238) =      4.62671  eV     1   --> A              
     e(239 -239) =      4.63504  eV     1   --> A              
     e(240 -240) =      4.66342  eV     1   --> A              
     e(241 -241) =      4.67737  eV     1   --> A              
     e(242 -242) =      4.68036  eV     1   --> A              
     e(243 -243) =      4.82620  eV     1   --> A              
     e(244 -244) =      4.82810  eV     1   --> A              
     e(245 -245) =      4.83283  eV     1   --> A              
     e(246 -246) =      4.90505  eV     1   --> A              
     e(247 -247) =      5.13107  eV     1   --> A              
     e(248 -248) =      5.13991  eV     1   --> A              
     e(249 -249) =      5.14156  eV     1   --> A              
     e(250 -250) =      5.16211  eV     1   --> A              

 **************************************************************************

 **************************************************************************

                    xk=(   0.05000,   0.02887,   0.00000  )

     Band symmetry, C_1 (1)     point group:

     e(  1 -  4) =   -114.16839  eV     4   -->   4 A              
     e(  5 - 12) =    -71.64071  eV     8   -->   8 A              
     e( 13 - 16) =    -71.46824  eV     4   -->   4 A              
     e( 17 - 17) =    -18.72109  eV     1   --> A              
     e( 18 - 18) =    -18.55707  eV     1   --> A              
     e( 19 - 19) =    -18.55606  eV     1   --> A              
     e( 20 - 20) =    -18.55593  eV     1   --> A              
     e( 21 - 21) =    -17.74963  eV     1   --> A              
     e( 22 - 22) =    -17.74944  eV     1   --> A              
     e( 23 - 23) =    -17.74931  eV     1   --> A              
     e( 24 - 24) =    -17.70797  eV     1   --> A              
     e( 25 - 25) =    -17.32161  eV     1   --> A              
     e( 26 - 26) =    -17.31985  eV     1   --> A              
     e( 27 - 28) =    -17.27600  eV     2   -->   2 A              
     e( 29 - 29) =    -17.27535  eV     1   --> A              
     e( 30 - 30) =    -17.06309  eV     1   --> A              
     e( 31 - 32) =    -17.06174  eV     2   -->   2 A              
     e( 33 - 34) =    -17.03076  eV     2   -->   2 A              
     e( 35 - 37) =    -17.03045  eV     3   -->   3 A              
     e( 38 - 40) =    -17.01656  eV     3   -->   3 A              
     e( 41 - 41) =    -17.00029  eV     1   --> A              
     e( 42 - 42) =    -16.92053  eV     1   --> A              
     e( 43 - 44) =    -16.91863  eV     2   -->   2 A              
     e( 45 - 45) =    -16.23562  eV     1   --> A              
     e( 46 - 46) =    -16.23531  eV     1   --> A              
     e( 47 - 47) =    -16.23293  eV     1   --> A              
     e( 48 - 48) =    -15.78247  eV     1   --> A              
     e( 49 - 49) =    -15.78193  eV     1   --> A              
     e( 50 - 50) =    -15.77933  eV     1   --> A              
     e( 51 - 51) =    -15.62430  eV     1   --> A              
     e( 52 - 52) =    -15.62163  eV     1   --> A              
     e( 53 - 53) =    -15.50237  eV     1   --> A              
     e( 54 - 54) =    -15.50188  eV     1   --> A              
     e( 55 - 55) =    -15.49962  eV     1   --> A              
     e( 56 - 56) =    -15.14822  eV     1   --> A              
     e( 57 - 57) =    -15.14806  eV     1   --> A              
     e( 58 - 58) =    -15.14686  eV     1   --> A              
     e( 59 - 59) =    -15.02932  eV     1   --> A              
     e( 60 - 60) =    -15.02718  eV     1   --> A              
     e( 61 - 61) =    -13.01315  eV     1   --> A              
     e( 62 - 62) =    -12.36607  eV     1   --> A              
     e( 63 - 64) =    -12.36192  eV     2   -->   2 A              
     e( 65 - 65) =    -11.22330  eV     1   --> A              
     e( 66 - 66) =    -10.69503  eV     1   --> A              
     e( 67 - 68) =    -10.69029  eV     2   -->   2 A              
     e( 69 - 69) =     -9.59647  eV     1   --> A              
     e( 70 - 70) =     -9.32886  eV     1   --> A              
     e( 71 - 71) =     -9.32550  eV     1   --> A              
     e( 72 - 72) =     -9.32528  eV     1   --> A              
     e( 73 - 73) =     -8.63196  eV     1   --> A              
     e( 74 - 74) =     -8.62882  eV     1   --> A              
     e( 75 - 75) =     -8.62682  eV     1   --> A              
     e( 76 - 76) =     -8.55743  eV     1   --> A              
     e( 77 - 77) =     -8.55057  eV     1   --> A              
     e( 78 - 78) =     -8.31504  eV     1   --> A              
     e( 79 - 79) =     -8.31267  eV     1   --> A              
     e( 80 - 80) =     -8.31090  eV     1   --> A              
     e( 81 - 81) =     -8.03005  eV     1   --> A              
     e( 82 - 82) =     -8.02950  eV     1   --> A              
     e( 83 - 83) =     -8.02777  eV     1   --> A              
     e( 84 - 84) =     -7.96246  eV     1   --> A              
     e( 85 - 85) =     -7.95222  eV     1   --> A              
     e( 86 - 86) =     -7.40175  eV     1   --> A              
     e( 87 - 87) =     -7.39906  eV     1   --> A              
     e( 88 - 88) =     -7.39106  eV     1   --> A              
     e( 89 - 89) =     -7.28175  eV     1   --> A              
     e( 90 - 90) =     -7.25990  eV     1   --> A              
     e( 91 - 91) =     -7.25928  eV     1   --> A              
     e( 92 - 92) =     -7.25431  eV     1   --> A              
     e( 93 - 93) =     -6.44155  eV     1   --> A              
     e( 94 - 94) =     -6.44073  eV     1   --> A              
     e( 95 - 95) =     -6.44035  eV     1   --> A              
     e( 96 - 96) =     -6.16345  eV     1   --> A              
     e( 97 - 97) =     -6.16186  eV     1   --> A              
     e( 98 - 98) =     -6.16091  eV     1   --> A              
     e( 99 - 99) =     -6.10736  eV     1   --> A              
     e(100 -100) =     -5.85874  eV     1   --> A              
     e(101 -101) =     -5.85797  eV     1   --> A              
     e(102 -102) =     -5.85717  eV     1   --> A              
     e(103 -103) =     -5.80101  eV     1   --> A              
     e(104 -104) =     -5.76513  eV     1   --> A              
     e(105 -105) =     -5.76003  eV     1   --> A              
     e(106 -106) =     -5.63824  eV     1   --> A              
     e(107 -107) =     -5.63804  eV     1   --> A              
     e(108 -108) =     -5.63780  eV     1   --> A              
     e(109 -109) =     -5.42846  eV     1   --> A              
     e(110 -110) =     -5.42638  eV     1   --> A              
     e(111 -111) =     -5.42559  eV     1   --> A              
     e(112 -112) =     -5.37781  eV     1   --> A              
     e(113 -113) =     -5.37550  eV     1   --> A              
     e(114 -114) =     -5.13511  eV     1   --> A              
     e(115 -115) =     -5.13372  eV     1   --> A              
     e(116 -116) =     -5.13203  eV     1   --> A              
     e(117 -117) =     -4.98706  eV     1   --> A              
     e(118 -119) =     -4.98598  eV     2   -->   2 A              
     e(120 -120) =     -4.76568  eV     1   --> A              
     e(121 -121) =     -4.74343  eV     1   --> A              
     e(122 -122) =     -4.72713  eV     1   --> A              
     e(123 -123) =     -4.72216  eV     1   --> A              
     e(124 -124) =     -4.72016  eV     1   --> A              
     e(125 -125) =     -4.70062  eV     1   --> A              
     e(126 -126) =     -4.65939  eV     1   --> A              
     e(127 -127) =     -4.65845  eV     1   --> A              
     e(128 -128) =     -4.65339  eV     1   --> A              
     e(129 -129) =     -4.27931  eV     1   --> A              
     e(130 -130) =     -4.27814  eV     1   --> A              
     e(131 -131) =     -4.27777  eV     1   --> A              
     e(132 -132) =     -4.11501  eV     1   --> A              
     e(133 -133) =     -4.11324  eV     1   --> A              
     e(134 -134) =     -4.11313  eV     1   --> A              
     e(135 -135) =     -3.99301  eV     1   --> A              
     e(136 -136) =     -3.93775  eV     1   --> A              
     e(137 -137) =     -3.93226  eV     1   --> A              
     e(138 -138) =     -3.85190  eV     1   --> A              
     e(139 -139) =     -3.84970  eV     1   --> A              
     e(140 -140) =     -3.84882  eV     1   --> A              
     e(141 -141) =     -3.78470  eV     1   --> A              
     e(142 -142) =     -3.78365  eV     1   --> A              
     e(143 -143) =     -3.78230  eV     1   --> A              
     e(144 -144) =     -3.72013  eV     1   --> A              
     e(145 -145) =     -3.71544  eV     1   --> A              
     e(146 -146) =     -3.71439  eV     1   --> A              
     e(147 -147) =     -3.57577  eV     1   --> A              
     e(148 -148) =     -3.56771  eV     1   --> A              
     e(149 -149) =     -3.37983  eV     1   --> A              
     e(150 -150) =     -3.37910  eV     1   --> A              
     e(151 -151) =     -3.37676  eV     1   --> A              
     e(152 -152) =     -3.20640  eV     1   --> A              
     e(153 -154) =     -3.19876  eV     2   -->   2 A              
     e(155 -155) =     -2.97370  eV     1   --> A              
     e(156 -156) =     -2.96477  eV     1   --> A              
     e(157 -157) =     -1.25376  eV     1   --> A              
     e(158 -158) =     -0.79579  eV     1   --> A              
     e(159 -159) =     -0.79561  eV     1   --> A              
     e(160 -160) =     -0.78953  eV     1   --> A              
     e(161 -161) =     -0.27326  eV     1   --> A              
     e(162 -162) =      0.04973  eV     1   --> A              
     e(163 -163) =      0.05243  eV     1   --> A              
     e(164 -164) =      0.06566  eV     1   --> A              
     e(165 -165) =      0.10010  eV     1   --> A              
     e(166 -167) =      0.10226  eV     2   -->   2 A              
     e(168 -168) =      0.35514  eV     1   --> A              
     e(169 -169) =      0.35527  eV     1   --> A              
     e(170 -170) =      0.36052  eV     1   --> A              
     e(171 -171) =      0.56490  eV     1   --> A              
     e(172 -172) =      0.56578  eV     1   --> A              
     e(173 -173) =      0.56762  eV     1   --> A              
     e(174 -174) =      0.56873  eV     1   --> A              
     e(175 -175) =      0.57333  eV     1   --> A              
     e(176 -176) =      0.85980  eV     1   --> A              
     e(177 -177) =      1.02312  eV     1   --> A              
     e(178 -178) =      1.02572  eV     1   --> A              
     e(179 -179) =      1.02914  eV     1   --> A              
     e(180 -180) =      1.10018  eV     1   --> A              
     e(181 -181) =      1.34743  eV     1   --> A              
     e(182 -182) =      1.34792  eV     1   --> A              
     e(183 -183) =      1.35224  eV     1   --> A              
     e(184 -184) =      1.78785  eV     1   --> A              
     e(185 -185) =      1.79941  eV     1   --> A              
     e(186 -186) =      1.92522  eV     1   --> A              
     e(187 -187) =      1.93298  eV     1   --> A              
     e(188 -189) =      1.93910  eV     2   -->   2 A              
     e(190 -190) =      2.18843  eV     1   --> A              
     e(191 -191) =      2.18913  eV     1   --> A              
     e(192 -192) =      2.19333  eV     1   --> A              
     e(193 -193) =      2.46546  eV     1   --> A              
     e(194 -194) =      2.55877  eV     1   --> A              
     e(195 -195) =      2.56591  eV     1   --> A              
     e(196 -196) =      2.58510  eV     1   --> A              
     e(197 -197) =      2.59176  eV     1   --> A              
     e(198 -198) =      2.59653  eV     1   --> A              
     e(199 -199) =      2.70778  eV     1   --> A              
     e(200 -200) =      2.75348  eV     1   --> A              
     e(201 -201) =      2.75522  eV     1   --> A              
     e(202 -202) =      2.75959  eV     1   --> A              
     e(203 -203) =      3.01300  eV     1   --> A              
     e(204 -204) =      3.01521  eV     1   --> A              
     e(205 -205) =      3.01914  eV     1   --> A              
     e(206 -206) =      3.06939  eV     1   --> A              
     e(207 -207) =      3.34088  eV     1   --> A              
     e(208 -208) =      3.38630  eV     1   --> A              
     e(209 -209) =      3.40349  eV     1   --> A              
     e(210 -210) =      3.40687  eV     1   --> A              
     e(211 -211) =      3.67555  eV     1   --> A              
     e(212 -212) =      3.67636  eV     1   --> A              
     e(213 -213) =      3.67801  eV     1   --> A              
     e(214 -214) =      3.68188  eV     1   --> A              
     e(215 -215) =      3.72653  eV     1   --> A              
     e(216 -217) =      3.74631  eV     2   -->   2 A              
     e(218 -218) =      3.88048  eV     1   --> A              
     e(219 -219) =      3.89571  eV     1   --> A              
     e(220 -220) =      3.92469  eV     1   --> A              
     e(221 -221) =      3.92805  eV     1   --> A              
     e(222 -222) =      3.93679  eV     1   --> A              
     e(223 -223) =      4.01101  eV     1   --> A              
     e(224 -224) =      4.05318  eV     1   --> A              
     e(225 -225) =      4.06593  eV     1   --> A              
     e(226 -226) =      4.07503  eV     1   --> A              
     e(227 -227) =      4.15513  eV     1   --> A              
     e(228 -228) =      4.15586  eV     1   --> A              
     e(229 -229) =      4.16872  eV     1   --> A              
     e(230 -230) =      4.19902  eV     1   --> A              
     e(231 -231) =      4.27920  eV     1   --> A              
     e(232 -232) =      4.28026  eV     1   --> A              
     e(233 -233) =      4.31728  eV     1   --> A              
     e(234 -234) =      4.46724  eV     1   --> A              
     e(235 -235) =      4.48997  eV     1   --> A              
     e(236 -236) =      4.50816  eV     1   --> A              
     e(237 -237) =      4.59810  eV     1   --> A              
     e(238 -238) =      4.61735  eV     1   --> A              
     e(239 -239) =      4.61914  eV     1   --> A              
     e(240 -240) =      4.68601  eV     1   --> A              
     e(241 -241) =      4.70632  eV     1   --> A              
     e(242 -242) =      4.71411  eV     1   --> A              
     e(243 -243) =      4.82990  eV     1   --> A              
     e(244 -244) =      4.83922  eV     1   --> A              
     e(245 -245) =      4.85326  eV     1   --> A              
     e(246 -246) =      4.90710  eV     1   --> A              
     e(247 -247) =      5.10904  eV     1   --> A              
     e(248 -248) =      5.12206  eV     1   --> A              
     e(249 -249) =      5.14771  eV     1   --> A              
     e(250 -250) =      5.17615  eV     1   --> A              

 **************************************************************************

 **************************************************************************

                    xk=(   0.07500,   0.04330,   0.00000  )

     Band symmetry, C_1 (1)     point group:

     e(  1 -  4) =   -114.16839  eV     4   -->   4 A              
     e(  5 - 12) =    -71.64072  eV     8   -->   8 A              
     e( 13 - 16) =    -71.46824  eV     4   -->   4 A              
     e( 17 - 17) =    -18.71993  eV     1   --> A              
     e( 18 - 18) =    -18.55846  eV     1   --> A              
     e( 19 - 19) =    -18.55611  eV     1   --> A              
     e( 20 - 20) =    -18.55597  eV     1   --> A              
     e( 21 - 21) =    -17.74951  eV     1   --> A              
     e( 22 - 22) =    -17.74911  eV     1   --> A              
     e( 23 - 23) =    -17.74898  eV     1   --> A              
     e( 24 - 24) =    -17.70862  eV     1   --> A              
     e( 25 - 25) =    -17.32146  eV     1   --> A              
     e( 26 - 26) =    -17.31743  eV     1   --> A              
     e( 27 - 27) =    -17.27741  eV     1   --> A              
     e( 28 - 28) =    -17.27728  eV     1   --> A              
     e( 29 - 29) =    -17.27604  eV     1   --> A              
     e( 30 - 30) =    -17.06421  eV     1   --> A              
     e( 31 - 31) =    -17.06113  eV     1   --> A              
     e( 32 - 32) =    -17.06098  eV     1   --> A              
     e( 33 - 34) =    -17.03075  eV     2   -->   2 A              
     e( 35 - 37) =    -17.03042  eV     3   -->   3 A              
     e( 38 - 38) =    -17.01676  eV     1   --> A              
     e( 39 - 40) =    -17.01653  eV     2   -->   2 A              
     e( 41 - 41) =    -17.00019  eV     1   --> A              
     e( 42 - 42) =    -16.92249  eV     1   --> A              
     e( 43 - 43) =    -16.91819  eV     1   --> A              
     e( 44 - 44) =    -16.91805  eV     1   --> A              
     e( 45 - 45) =    -16.23388  eV     1   --> A              
     e( 46 - 46) =    -16.23334  eV     1   --> A              
     e( 47 - 47) =    -16.22798  eV     1   --> A              
     e( 48 - 48) =    -15.78558  eV     1   --> A              
     e( 49 - 49) =    -15.78446  eV     1   --> A              
     e( 50 - 50) =    -15.77857  eV     1   --> A              
     e( 51 - 51) =    -15.62906  eV     1   --> A              
     e( 52 - 52) =    -15.62305  eV     1   --> A              
     e( 53 - 53) =    -15.50139  eV     1   --> A              
     e( 54 - 54) =    -15.50036  eV     1   --> A              
     e( 55 - 55) =    -15.49527  eV     1   --> A              
     e( 56 - 56) =    -15.14912  eV     1   --> A              
     e( 57 - 57) =    -15.14881  eV     1   --> A              
     e( 58 - 58) =    -15.14604  eV     1   --> A              
     e( 59 - 59) =    -15.03296  eV     1   --> A              
     e( 60 - 60) =    -15.02816  eV     1   --> A              
     e( 61 - 61) =    -13.00730  eV     1   --> A              
     e( 62 - 62) =    -12.37051  eV     1   --> A              
     e( 63 - 64) =    -12.36118  eV     2   -->   2 A              
     e( 65 - 65) =    -11.21953  eV     1   --> A              
     e( 66 - 66) =    -10.69938  eV     1   --> A              
     e( 67 - 68) =    -10.68871  eV     2   -->   2 A              
     e( 69 - 69) =     -9.59446  eV     1   --> A              
     e( 70 - 70) =     -9.33043  eV     1   --> A              
     e( 71 - 71) =     -9.32277  eV     1   --> A              
     e( 72 - 72) =     -9.32239  eV     1   --> A              
     e( 73 - 73) =     -8.63848  eV     1   --> A              
     e( 74 - 74) =     -8.63180  eV     1   --> A              
     e( 75 - 75) =     -8.62732  eV     1   --> A              
     e( 76 - 76) =     -8.56231  eV     1   --> A              
     e( 77 - 77) =     -8.54708  eV     1   --> A              
     e( 78 - 78) =     -8.32074  eV     1   --> A              
     e( 79 - 79) =     -8.31545  eV     1   --> A              
     e( 80 - 80) =     -8.31166  eV     1   --> A              
     e( 81 - 81) =     -8.03590  eV     1   --> A              
     e( 82 - 82) =     -8.03473  eV     1   --> A              
     e( 83 - 83) =     -8.03072  eV     1   --> A              
     e( 84 - 84) =     -7.96990  eV     1   --> A              
     e( 85 - 85) =     -7.94725  eV     1   --> A              
     e( 86 - 86) =     -7.41122  eV     1   --> A              
     e( 87 - 87) =     -7.40631  eV     1   --> A              
     e( 88 - 88) =     -7.39002  eV     1   --> A              
     e( 89 - 89) =     -7.26938  eV     1   --> A              
     e( 90 - 91) =     -7.25064  eV     2   -->   2 A              
     e( 92 - 92) =     -7.24083  eV     1   --> A              
     e( 93 - 93) =     -6.43836  eV     1   --> A              
     e( 94 - 94) =     -6.43671  eV     1   --> A              
     e( 95 - 95) =     -6.43592  eV     1   --> A              
     e( 96 - 96) =     -6.16503  eV     1   --> A              
     e( 97 - 97) =     -6.16150  eV     1   --> A              
     e( 98 - 98) =     -6.15942  eV     1   --> A              
     e( 99 - 99) =     -6.10356  eV     1   --> A              
     e(100 -100) =     -5.85937  eV     1   --> A              
     e(101 -101) =     -5.85752  eV     1   --> A              
     e(102 -102) =     -5.85591  eV     1   --> A              
     e(103 -103) =     -5.80358  eV     1   --> A              
     e(104 -104) =     -5.76733  eV     1   --> A              
     e(105 -105) =     -5.75639  eV     1   --> A              
     e(106 -106) =     -5.63872  eV     1   --> A              
     e(107 -107) =     -5.63841  eV     1   --> A              
     e(108 -108) =     -5.63777  eV     1   --> A              
     e(109 -109) =     -5.43059  eV     1   --> A              
     e(110 -110) =     -5.42627  eV     1   --> A              
     e(111 -111) =     -5.42440  eV     1   --> A              
     e(112 -112) =     -5.38318  eV     1   --> A              
     e(113 -113) =     -5.37798  eV     1   --> A              
     e(114 -114) =     -5.13799  eV     1   --> A              
     e(115 -115) =     -5.13500  eV     1   --> A              
     e(116 -116) =     -5.13130  eV     1   --> A              
     e(117 -117) =     -4.99105  eV     1   --> A              
     e(118 -119) =     -4.98863  eV     2   -->   2 A              
     e(120 -120) =     -4.77809  eV     1   --> A              
     e(121 -121) =     -4.74005  eV     1   --> A              
     e(122 -122) =     -4.73159  eV     1   --> A              
     e(123 -123) =     -4.72207  eV     1   --> A              
     e(124 -124) =     -4.71793  eV     1   --> A              
     e(125 -125) =     -4.68508  eV     1   --> A              
     e(126 -126) =     -4.65554  eV     1   --> A              
     e(127 -127) =     -4.65343  eV     1   --> A              
     e(128 -128) =     -4.64389  eV     1   --> A              
     e(129 -129) =     -4.27796  eV     1   --> A              
     e(130 -130) =     -4.27553  eV     1   --> A              
     e(131 -131) =     -4.27461  eV     1   --> A              
     e(132 -132) =     -4.11389  eV     1   --> A              
     e(133 -133) =     -4.11000  eV     1   --> A              
     e(134 -134) =     -4.10976  eV     1   --> A              
     e(135 -135) =     -3.99580  eV     1   --> A              
     e(136 -136) =     -3.93968  eV     1   --> A              
     e(137 -137) =     -3.92757  eV     1   --> A              
     e(138 -138) =     -3.85409  eV     1   --> A              
     e(139 -139) =     -3.84895  eV     1   --> A              
     e(140 -140) =     -3.84708  eV     1   --> A              
     e(141 -141) =     -3.78694  eV     1   --> A              
     e(142 -142) =     -3.78478  eV     1   --> A              
     e(143 -143) =     -3.78254  eV     1   --> A              
     e(144 -144) =     -3.72322  eV     1   --> A              
     e(145 -145) =     -3.71408  eV     1   --> A              
     e(146 -146) =     -3.71174  eV     1   --> A              
     e(147 -147) =     -3.58938  eV     1   --> A              
     e(148 -148) =     -3.57180  eV     1   --> A              
     e(149 -149) =     -3.38267  eV     1   --> A              
     e(150 -150) =     -3.38105  eV     1   --> A              
     e(151 -151) =     -3.37593  eV     1   --> A              
     e(152 -152) =     -3.21510  eV     1   --> A              
     e(153 -153) =     -3.19804  eV     1   --> A              
     e(154 -154) =     -3.19785  eV     1   --> A              
     e(155 -155) =     -2.98895  eV     1   --> A              
     e(156 -156) =     -2.96931  eV     1   --> A              
     e(157 -157) =     -1.23863  eV     1   --> A              
     e(158 -158) =     -0.79804  eV     1   --> A              
     e(159 -159) =     -0.79761  eV     1   --> A              
     e(160 -160) =     -0.78427  eV     1   --> A              
     e(161 -161) =     -0.26313  eV     1   --> A              
     e(162 -162) =      0.03960  eV     1   --> A              
     e(163 -163) =      0.04468  eV     1   --> A              
     e(164 -164) =      0.07007  eV     1   --> A              
     e(165 -165) =      0.10957  eV     1   --> A              
     e(166 -166) =      0.10974  eV     1   --> A              
     e(167 -167) =      0.11033  eV     1   --> A              
     e(168 -168) =      0.35355  eV     1   --> A              
     e(169 -169) =      0.35401  eV     1   --> A              
     e(170 -170) =      0.36583  eV     1   --> A              
     e(171 -171) =      0.56148  eV     1   --> A              
     e(172 -172) =      0.56367  eV     1   --> A              
     e(173 -173) =      0.56483  eV     1   --> A              
     e(174 -174) =      0.56684  eV     1   --> A              
     e(175 -175) =      0.57411  eV     1   --> A              
     e(176 -176) =      0.85978  eV     1   --> A              
     e(177 -177) =      1.01568  eV     1   --> A              
     e(178 -178) =      1.02129  eV     1   --> A              
     e(179 -179) =      1.02908  eV     1   --> A              
     e(180 -180) =      1.09966  eV     1   --> A              
     e(181 -181) =      1.34550  eV     1   --> A              
     e(182 -182) =      1.34667  eV     1   --> A              
     e(183 -183) =      1.35587  eV     1   --> A              
     e(184 -184) =      1.77872  eV     1   --> A              
     e(185 -185) =      1.80298  eV     1   --> A              
     e(186 -186) =      1.91773  eV     1   --> A              
     e(187 -188) =      1.93006  eV     2   -->   2 A              
     e(189 -189) =      1.93620  eV     1   --> A              
     e(190 -190) =      2.19366  eV     1   --> A              
     e(191 -191) =      2.19557  eV     1   --> A              
     e(192 -192) =      2.20371  eV     1   --> A              
     e(193 -193) =      2.46675  eV     1   --> A              
     e(194 -194) =      2.55459  eV     1   --> A              
     e(195 -195) =      2.56998  eV     1   --> A              
     e(196 -196) =      2.57479  eV     1   --> A              
     e(197 -197) =      2.59032  eV     1   --> A              
     e(198 -198) =      2.60009  eV     1   --> A              
     e(199 -199) =      2.71235  eV     1   --> A              
     e(200 -200) =      2.74930  eV     1   --> A              
     e(201 -201) =      2.75268  eV     1   --> A              
     e(202 -202) =      2.76338  eV     1   --> A              
     e(203 -203) =      3.01698  eV     1   --> A              
     e(204 -204) =      3.02257  eV     1   --> A              
     e(205 -205) =      3.03080  eV     1   --> A              
     e(206 -206) =      3.07152  eV     1   --> A              
     e(207 -207) =      3.34500  eV     1   --> A              
     e(208 -208) =      3.36623  eV     1   --> A              
     e(209 -209) =      3.40232  eV     1   --> A              
     e(210 -210) =      3.40956  eV     1   --> A              
     e(211 -211) =      3.66813  eV     1   --> A              
     e(212 -212) =      3.67192  eV     1   --> A              
     e(213 -213) =      3.68023  eV     1   --> A              
     e(214 -214) =      3.69401  eV     1   --> A              
     e(215 -215) =      3.71885  eV     1   --> A              
     e(216 -216) =      3.74177  eV     1   --> A              
     e(217 -217) =      3.74217  eV     1   --> A              
     e(218 -218) =      3.87216  eV     1   --> A              
     e(219 -219) =      3.90447  eV     1   --> A              
     e(220 -220) =      3.92390  eV     1   --> A              
     e(221 -221) =      3.93005  eV     1   --> A              
     e(222 -222) =      3.93838  eV     1   --> A              
     e(223 -223) =      4.02329  eV     1   --> A              
     e(224 -224) =      4.03099  eV     1   --> A              
     e(225 -225) =      4.05219  eV     1   --> A              
     e(226 -226) =      4.06929  eV     1   --> A              
     e(227 -227) =      4.15254  eV     1   --> A              
     e(228 -228) =      4.16869  eV     1   --> A              
     e(229 -229) =      4.17778  eV     1   --> A              
     e(230 -230) =      4.20204  eV     1   --> A              
     e(231 -231) =      4.30165  eV     1   --> A              
     e(232 -232) =      4.30377  eV     1   --> A              
     e(233 -233) =      4.36014  eV     1   --> A              
     e(234 -234) =      4.43239  eV     1   --> A              
     e(235 -235) =      4.47173  eV     1   --> A              
     e(236 -236) =      4.50165  eV     1   --> A              
     e(237 -237) =      4.58088  eV     1   --> A              
     e(238 -238) =      4.59950  eV     1   --> A              
     e(239 -239) =      4.61355  eV     1   --> A              
     e(240 -240) =      4.71651  eV     1   --> A              
     e(241 -241) =      4.73551  eV     1   --> A              
     e(242 -242) =      4.74177  eV     1   --> A              
     e(243 -243) =      4.83557  eV     1   --> A              
     e(244 -244) =      4.86161  eV     1   --> A              
     e(245 -245) =      4.87959  eV     1   --> A              
     e(246 -246) =      4.91054  eV     1   --> A              
     e(247 -247) =      5.09225  eV     1   --> A              
     e(248 -248) =      5.10158  eV     1   --> A              
     e(249 -249) =      5.13449  eV     1   --> A              
     e(250 -250) =      5.17454  eV     1   --> A              

 **************************************************************************

 **************************************************************************

                    xk=(   0.10000,   0.05774,   0.00000  )

     Band symmetry, C_1 (1)     point group:

     e(  1 -  4) =   -114.16839  eV     4   -->   4 A              
     e(  5 - 12) =    -71.64072  eV     8   -->   8 A              
     e( 13 - 16) =    -71.46824  eV     4   -->   4 A              
     e( 17 - 17) =    -18.71830  eV     1   --> A              
     e( 18 - 18) =    -18.56038  eV     1   --> A              
     e( 19 - 19) =    -18.55617  eV     1   --> A              
     e( 20 - 20) =    -18.55604  eV     1   --> A              
     e( 21 - 21) =    -17.74935  eV     1   --> A              
     e( 22 - 22) =    -17.74866  eV     1   --> A              
     e( 23 - 23) =    -17.74853  eV     1   --> A              
     e( 24 - 24) =    -17.70951  eV     1   --> A              
     e( 25 - 25) =    -17.32124  eV     1   --> A              
     e( 26 - 26) =    -17.31406  eV     1   --> A              
     e( 27 - 27) =    -17.27933  eV     1   --> A              
     e( 28 - 28) =    -17.27911  eV     1   --> A              
     e( 29 - 29) =    -17.27697  eV     1   --> A              
     e( 30 - 30) =    -17.06582  eV     1   --> A              
     e( 31 - 31) =    -17.06030  eV     1   --> A              
     e( 32 - 32) =    -17.06006  eV     1   --> A              
     e( 33 - 34) =    -17.03071  eV     2   -->   2 A              
     e( 35 - 36) =    -17.03037  eV     2   -->   2 A              
     e( 37 - 37) =    -17.03021  eV     1   --> A              
     e( 38 - 38) =    -17.01703  eV     1   --> A              
     e( 39 - 40) =    -17.01661  eV     2   -->   2 A              
     e( 41 - 41) =    -17.00004  eV     1   --> A              
     e( 42 - 42) =    -16.92517  eV     1   --> A              
     e( 43 - 43) =    -16.91761  eV     1   --> A              
     e( 44 - 44) =    -16.91741  eV     1   --> A              
     e( 45 - 45) =    -16.23147  eV     1   --> A              
     e( 46 - 46) =    -16.23061  eV     1   --> A              
     e( 47 - 47) =    -16.22111  eV     1   --> A              
     e( 48 - 48) =    -15.78983  eV     1   --> A              
     e( 49 - 49) =    -15.78796  eV     1   --> A              
     e( 50 - 50) =    -15.77748  eV     1   --> A              
     e( 51 - 51) =    -15.63568  eV     1   --> A              
     e( 52 - 52) =    -15.62501  eV     1   --> A              
     e( 53 - 53) =    -15.50003  eV     1   --> A              
     e( 54 - 54) =    -15.49830  eV     1   --> A              
     e( 55 - 55) =    -15.48927  eV     1   --> A              
     e( 56 - 56) =    -15.15036  eV     1   --> A              
     e( 57 - 57) =    -15.14984  eV     1   --> A              
     e( 58 - 58) =    -15.14489  eV     1   --> A              
     e( 59 - 59) =    -15.03800  eV     1   --> A              
     e( 60 - 60) =    -15.02952  eV     1   --> A              
     e( 61 - 61) =    -12.99919  eV     1   --> A              
     e( 62 - 62) =    -12.37671  eV     1   --> A              
     e( 63 - 64) =    -12.36018  eV     2   -->   2 A              
     e( 65 - 65) =    -11.21427  eV     1   --> A              
     e( 66 - 66) =    -10.70542  eV     1   --> A              
     e( 67 - 68) =    -10.68655  eV     2   -->   2 A              
     e( 69 - 69) =     -9.59167  eV     1   --> A              
     e( 70 - 70) =     -9.33264  eV     1   --> A              
     e( 71 - 71) =     -9.31899  eV     1   --> A              
     e( 72 - 72) =     -9.31839  eV     1   --> A              
     e( 73 - 73) =     -8.64711  eV     1   --> A              
     e( 74 - 74) =     -8.63598  eV     1   --> A              
     e( 75 - 75) =     -8.62813  eV     1   --> A              
     e( 76 - 76) =     -8.56897  eV     1   --> A              
     e( 77 - 77) =     -8.54223  eV     1   --> A              
     e( 78 - 78) =     -8.32829  eV     1   --> A              
     e( 79 - 79) =     -8.31904  eV     1   --> A              
     e( 80 - 80) =     -8.31278  eV     1   --> A              
     e( 81 - 81) =     -8.04397  eV     1   --> A              
     e( 82 - 82) =     -8.04206  eV     1   --> A              
     e( 83 - 83) =     -8.03475  eV     1   --> A              
     e( 84 - 84) =     -7.97975  eV     1   --> A              
     e( 85 - 85) =     -7.94033  eV     1   --> A              
     e( 86 - 86) =     -7.42175  eV     1   --> A              
     e( 87 - 87) =     -7.41490  eV     1   --> A              
     e( 88 - 88) =     -7.38941  eV     1   --> A              
     e( 89 - 89) =     -7.25279  eV     1   --> A              
     e( 90 - 90) =     -7.23989  eV     1   --> A              
     e( 91 - 91) =     -7.23755  eV     1   --> A              
     e( 92 - 92) =     -7.22488  eV     1   --> A              
     e( 93 - 93) =     -6.43367  eV     1   --> A              
     e( 94 - 94) =     -6.43128  eV     1   --> A              
     e( 95 - 95) =     -6.42986  eV     1   --> A              
     e( 96 - 96) =     -6.16718  eV     1   --> A              
     e( 97 - 97) =     -6.16107  eV     1   --> A              
     e( 98 - 98) =     -6.15734  eV     1   --> A              
     e( 99 - 99) =     -6.09847  eV     1   --> A              
     e(100 -100) =     -5.86019  eV     1   --> A              
     e(101 -101) =     -5.85679  eV     1   --> A              
     e(102 -102) =     -5.85410  eV     1   --> A              
     e(103 -103) =     -5.80701  eV     1   --> A              
     e(104 -104) =     -5.77017  eV     1   --> A              
     e(105 -105) =     -5.75173  eV     1   --> A              
     e(106 -106) =     -5.63937  eV     1   --> A              
     e(107 -107) =     -5.63904  eV     1   --> A              
     e(108 -108) =     -5.63782  eV     1   --> A              
     e(109 -109) =     -5.43327  eV     1   --> A              
     e(110 -110) =     -5.42626  eV     1   --> A              
     e(111 -111) =     -5.42277  eV     1   --> A              
     e(112 -112) =     -5.39046  eV     1   --> A              
     e(113 -113) =     -5.38127  eV     1   --> A              
     e(114 -114) =     -5.14214  eV     1   --> A              
     e(115 -115) =     -5.13702  eV     1   --> A              
     e(116 -116) =     -5.13090  eV     1   --> A              
     e(117 -117) =     -4.99595  eV     1   --> A              
     e(118 -119) =     -4.99178  eV     2   -->   2 A              
     e(120 -120) =     -4.78978  eV     1   --> A              
     e(121 -121) =     -4.73590  eV     1   --> A              
     e(122 -122) =     -4.73538  eV     1   --> A              
     e(123 -123) =     -4.72165  eV     1   --> A              
     e(124 -124) =     -4.71493  eV     1   --> A              
     e(125 -125) =     -4.66927  eV     1   --> A              
     e(126 -126) =     -4.65053  eV     1   --> A              
     e(127 -127) =     -4.64690  eV     1   --> A              
     e(128 -128) =     -4.63289  eV     1   --> A              
     e(129 -129) =     -4.27613  eV     1   --> A              
     e(130 -130) =     -4.27235  eV     1   --> A              
     e(131 -131) =     -4.27040  eV     1   --> A              
     e(132 -132) =     -4.11217  eV     1   --> A              
     e(133 -133) =     -4.10560  eV     1   --> A              
     e(134 -134) =     -4.10485  eV     1   --> A              
     e(135 -135) =     -3.99985  eV     1   --> A              
     e(136 -136) =     -3.94222  eV     1   --> A              
     e(137 -137) =     -3.92126  eV     1   --> A              
     e(138 -138) =     -3.85754  eV     1   --> A              
     e(139 -139) =     -3.84787  eV     1   --> A              
     e(140 -140) =     -3.84493  eV     1   --> A              
     e(141 -141) =     -3.78963  eV     1   --> A              
     e(142 -142) =     -3.78629  eV     1   --> A              
     e(143 -143) =     -3.78442  eV     1   --> A              
     e(144 -144) =     -3.72507  eV     1   --> A              
     e(145 -145) =     -3.71225  eV     1   --> A              
     e(146 -146) =     -3.70816  eV     1   --> A              
     e(147 -147) =     -3.60755  eV     1   --> A              
     e(148 -148) =     -3.57754  eV     1   --> A              
     e(149 -149) =     -3.38663  eV     1   --> A              
     e(150 -150) =     -3.38369  eV     1   --> A              
     e(151 -151) =     -3.37493  eV     1   --> A              
     e(152 -152) =     -3.22695  eV     1   --> A              
     e(153 -153) =     -3.19708  eV     1   --> A              
     e(154 -154) =     -3.19663  eV     1   --> A              
     e(155 -155) =     -3.00950  eV     1   --> A              
     e(156 -156) =     -2.97568  eV     1   --> A              
     e(157 -157) =     -1.21828  eV     1   --> A              
     e(158 -158) =     -0.80115  eV     1   --> A              
     e(159 -159) =     -0.80035  eV     1   --> A              
     e(160 -160) =     -0.77734  eV     1   --> A              
     e(161 -161) =     -0.24950  eV     1   --> A              
     e(162 -162) =      0.02782  eV     1   --> A              
     e(163 -163) =      0.03547  eV     1   --> A              
     e(164 -164) =      0.07363  eV     1   --> A              
     e(165 -165) =      0.11744  eV     1   --> A              
     e(166 -166) =      0.11968  eV     1   --> A              
     e(167 -167) =      0.12531  eV     1   --> A              
     e(168 -168) =      0.35101  eV     1   --> A              
     e(169 -169) =      0.35236  eV     1   --> A              
     e(170 -170) =      0.37322  eV     1   --> A              
     e(171 -171) =      0.55365  eV     1   --> A              
     e(172 -172) =      0.55685  eV     1   --> A              
     e(173 -173) =      0.56468  eV     1   --> A              
     e(174 -174) =      0.56826  eV     1   --> A              
     e(175 -175) =      0.57539  eV     1   --> A              
     e(176 -176) =      0.85991  eV     1   --> A              
     e(177 -177) =      1.00562  eV     1   --> A              
     e(178 -178) =      1.01517  eV     1   --> A              
     e(179 -179) =      1.02901  eV     1   --> A              
     e(180 -180) =      1.09890  eV     1   --> A              
     e(181 -181) =      1.34312  eV     1   --> A              
     e(182 -182) =      1.34532  eV     1   --> A              
     e(183 -183) =      1.36083  eV     1   --> A              
     e(184 -184) =      1.76810  eV     1   --> A              
     e(185 -185) =      1.80774  eV     1   --> A              
     e(186 -186) =      1.89931  eV     1   --> A              
     e(187 -187) =      1.91848  eV     1   --> A              
     e(188 -188) =      1.91867  eV     1   --> A              
     e(189 -189) =      1.94912  eV     1   --> A              
     e(190 -190) =      2.19908  eV     1   --> A              
     e(191 -191) =      2.20322  eV     1   --> A              
     e(192 -192) =      2.21547  eV     1   --> A              
     e(193 -193) =      2.46846  eV     1   --> A              
     e(194 -194) =      2.54956  eV     1   --> A              
     e(195 -195) =      2.56083  eV     1   --> A              
     e(196 -196) =      2.57568  eV     1   --> A              
     e(197 -197) =      2.58878  eV     1   --> A              
     e(198 -198) =      2.60410  eV     1   --> A              
     e(199 -199) =      2.71865  eV     1   --> A              
     e(200 -200) =      2.74487  eV     1   --> A              
     e(201 -201) =      2.74957  eV     1   --> A              
     e(202 -202) =      2.76985  eV     1   --> A              
     e(203 -203) =      3.02133  eV     1   --> A              
     e(204 -204) =      3.03228  eV     1   --> A              
     e(205 -205) =      3.04581  eV     1   --> A              
     e(206 -206) =      3.07452  eV     1   --> A              
     e(207 -207) =      3.34163  eV     1   --> A              
     e(208 -208) =      3.35069  eV     1   --> A              
     e(209 -209) =      3.40065  eV     1   --> A              
     e(210 -210) =      3.41269  eV     1   --> A              
     e(211 -211) =      3.63716  eV     1   --> A              
     e(212 -212) =      3.66632  eV     1   --> A              
     e(213 -213) =      3.68435  eV     1   --> A              
     e(214 -214) =      3.70539  eV     1   --> A              
     e(215 -215) =      3.72857  eV     1   --> A              
     e(216 -216) =      3.73947  eV     1   --> A              
     e(217 -217) =      3.74044  eV     1   --> A              
     e(218 -218) =      3.86278  eV     1   --> A              
     e(219 -219) =      3.91609  eV     1   --> A              
     e(220 -220) =      3.92379  eV     1   --> A              
     e(221 -221) =      3.92439  eV     1   --> A              
     e(222 -222) =      3.93288  eV     1   --> A              
     e(223 -223) =      4.02177  eV     1   --> A              
     e(224 -224) =      4.03544  eV     1   --> A              
     e(225 -225) =      4.03791  eV     1   --> A              
     e(226 -226) =      4.05788  eV     1   --> A              
     e(227 -227) =      4.15851  eV     1   --> A              
     e(228 -228) =      4.19011  eV     1   --> A              
     e(229 -229) =      4.19197  eV     1   --> A              
     e(230 -230) =      4.20626  eV     1   --> A              
     e(231 -231) =      4.32659  eV     1   --> A              
     e(232 -232) =      4.32891  eV     1   --> A              
     e(233 -233) =      4.36134  eV     1   --> A              
     e(234 -234) =      4.43867  eV     1   --> A              
     e(235 -235) =      4.45572  eV     1   --> A              
     e(236 -236) =      4.49123  eV     1   --> A              
     e(237 -237) =      4.57086  eV     1   --> A              
     e(238 -238) =      4.58083  eV     1   --> A              
     e(239 -239) =      4.61326  eV     1   --> A              
     e(240 -240) =      4.75120  eV     1   --> A              
     e(241 -241) =      4.75936  eV     1   --> A              
     e(242 -242) =      4.76406  eV     1   --> A              
     e(243 -243) =      4.84274  eV     1   --> A              
     e(244 -244) =      4.89540  eV     1   --> A              
     e(245 -245) =      4.90596  eV     1   --> A              
     e(246 -246) =      4.91532  eV     1   --> A              
     e(247 -247) =      5.07800  eV     1   --> A              
     e(248 -248) =      5.07964  eV     1   --> A              
     e(249 -249) =      5.13132  eV     1   --> A              
     e(250 -250) =      5.20249  eV     1   --> A              

 **************************************************************************

 **************************************************************************

                    xk=(   0.12500,   0.07217,   0.00000  )

     Band symmetry, C_1 (1)     point group:

     e(  1 -  4) =   -114.16839  eV     4   -->   4 A              
     e(  5 - 12) =    -71.64072  eV     8   -->   8 A              
     e( 13 - 16) =    -71.46824  eV     4   -->   4 A              
     e( 17 - 17) =    -18.71622  eV     1   --> A              
     e( 18 - 18) =    -18.56284  eV     1   --> A              
     e( 19 - 19) =    -18.55625  eV     1   --> A              
     e( 20 - 20) =    -18.55612  eV     1   --> A              
     e( 21 - 21) =    -17.74913  eV     1   --> A              
     e( 22 - 22) =    -17.74810  eV     1   --> A              
     e( 23 - 23) =    -17.74796  eV     1   --> A              
     e( 24 - 24) =    -17.71063  eV     1   --> A              
     e( 25 - 25) =    -17.32096  eV     1   --> A              
     e( 26 - 26) =    -17.30978  eV     1   --> A              
     e( 27 - 27) =    -17.28167  eV     1   --> A              
     e( 28 - 28) =    -17.28134  eV     1   --> A              
     e( 29 - 29) =    -17.27813  eV     1   --> A              
     e( 30 - 30) =    -17.06787  eV     1   --> A              
     e( 31 - 31) =    -17.05930  eV     1   --> A              
     e( 32 - 32) =    -17.05895  eV     1   --> A              
     e( 33 - 33) =    -17.03068  eV     1   --> A              
     e( 34 - 34) =    -17.03056  eV     1   --> A              
     e( 35 - 36) =    -17.03031  eV     2   -->   2 A              
     e( 37 - 37) =    -17.03008  eV     1   --> A              
     e( 38 - 38) =    -17.01736  eV     1   --> A              
     e( 39 - 40) =    -17.01670  eV     2   -->   2 A              
     e( 41 - 41) =    -16.99985  eV     1   --> A              
     e( 42 - 42) =    -16.92846  eV     1   --> A              
     e( 43 - 43) =    -16.91688  eV     1   --> A              
     e( 44 - 44) =    -16.91660  eV     1   --> A              
     e( 45 - 45) =    -16.22842  eV     1   --> A              
     e( 46 - 46) =    -16.22716  eV     1   --> A              
     e( 47 - 47) =    -16.21238  eV     1   --> A              
     e( 48 - 48) =    -15.79513  eV     1   --> A              
     e( 49 - 49) =    -15.79238  eV     1   --> A              
     e( 50 - 50) =    -15.77603  eV     1   --> A              
     e( 51 - 51) =    -15.64410  eV     1   --> A              
     e( 52 - 52) =    -15.62752  eV     1   --> A              
     e( 53 - 53) =    -15.49829  eV     1   --> A              
     e( 54 - 54) =    -15.49576  eV     1   --> A              
     e( 55 - 55) =    -15.48170  eV     1   --> A              
     e( 56 - 56) =    -15.15192  eV     1   --> A              
     e( 57 - 57) =    -15.15115  eV     1   --> A              
     e( 58 - 58) =    -15.14342  eV     1   --> A              
     e( 59 - 59) =    -15.04441  eV     1   --> A              
     e( 60 - 60) =    -15.03126  eV     1   --> A              
     e( 61 - 61) =    -12.98891  eV     1   --> A              
     e( 62 - 62) =    -12.38462  eV     1   --> A              
     e( 63 - 64) =    -12.35893  eV     2   -->   2 A              
     e( 65 - 65) =    -11.20755  eV     1   --> A              
     e( 66 - 66) =    -10.71313  eV     1   --> A              
     e( 67 - 68) =    -10.68385  eV     2   -->   2 A              
     e( 69 - 69) =     -9.58808  eV     1   --> A              
     e( 70 - 70) =     -9.33550  eV     1   --> A              
     e( 71 - 71) =     -9.31420  eV     1   --> A              
     e( 72 - 72) =     -9.31332  eV     1   --> A              
     e( 73 - 73) =     -8.65740  eV     1   --> A              
     e( 74 - 74) =     -8.64136  eV     1   --> A              
     e( 75 - 75) =     -8.62936  eV     1   --> A              
     e( 76 - 76) =     -8.57728  eV     1   --> A              
     e( 77 - 77) =     -8.53607  eV     1   --> A              
     e( 78 - 78) =     -8.33731  eV     1   --> A              
     e( 79 - 79) =     -8.32318  eV     1   --> A              
     e( 80 - 80) =     -8.31428  eV     1   --> A              
     e( 81 - 81) =     -8.05414  eV     1   --> A              
     e( 82 - 82) =     -8.05149  eV     1   --> A              
     e( 83 - 83) =     -8.03980  eV     1   --> A              
     e( 84 - 84) =     -7.99154  eV     1   --> A              
     e( 85 - 85) =     -7.93150  eV     1   --> A              
     e( 86 - 86) =     -7.43234  eV     1   --> A              
     e( 87 - 87) =     -7.42407  eV     1   --> A              
     e( 88 - 88) =     -7.38979  eV     1   --> A              
     e( 89 - 89) =     -7.23261  eV     1   --> A              
     e( 90 - 90) =     -7.22792  eV     1   --> A              
     e( 91 - 91) =     -7.22087  eV     1   --> A              
     e( 92 - 92) =     -7.20765  eV     1   --> A              
     e( 93 - 93) =     -6.42730  eV     1   --> A              
     e( 94 - 94) =     -6.42460  eV     1   --> A              
     e( 95 - 95) =     -6.42234  eV     1   --> A              
     e( 96 - 96) =     -6.16984  eV     1   --> A              
     e( 97 - 97) =     -6.16064  eV     1   --> A              
     e( 98 - 98) =     -6.15466  eV     1   --> A              
     e( 99 - 99) =     -6.09232  eV     1   --> A              
     e(100 -100) =     -5.86114  eV     1   --> A              
     e(101 -101) =     -5.85573  eV     1   --> A              
     e(102 -102) =     -5.85170  eV     1   --> A              
     e(103 -103) =     -5.81139  eV     1   --> A              
     e(104 -104) =     -5.77338  eV     1   --> A              
     e(105 -105) =     -5.74623  eV     1   --> A              
     e(106 -106) =     -5.64018  eV     1   --> A              
     e(107 -107) =     -5.64002  eV     1   --> A              
     e(108 -108) =     -5.63799  eV     1   --> A              
     e(109 -109) =     -5.43624  eV     1   --> A              
     e(110 -110) =     -5.42649  eV     1   --> A              
     e(111 -111) =     -5.42076  eV     1   --> A              
     e(112 -112) =     -5.39946  eV     1   --> A              
     e(113 -113) =     -5.38517  eV     1   --> A              
     e(114 -114) =     -5.14765  eV     1   --> A              
     e(115 -115) =     -5.14001  eV     1   --> A              
     e(116 -116) =     -5.13138  eV     1   --> A              
     e(117 -117) =     -5.00114  eV     1   --> A              
     e(118 -118) =     -4.99499  eV     1   --> A              
     e(119 -119) =     -4.99485  eV     1   --> A              
     e(120 -120) =     -4.80054  eV     1   --> A              
     e(121 -121) =     -4.73950  eV     1   --> A              
     e(122 -122) =     -4.72948  eV     1   --> A              
     e(123 -123) =     -4.72077  eV     1   --> A              
     e(124 -124) =     -4.71126  eV     1   --> A              
     e(125 -125) =     -4.65366  eV     1   --> A              
     e(126 -126) =     -4.64461  eV     1   --> A              
     e(127 -127) =     -4.63923  eV     1   --> A              
     e(128 -128) =     -4.62119  eV     1   --> A              
     e(129 -129) =     -4.27393  eV     1   --> A              
     e(130 -130) =     -4.26897  eV     1   --> A              
     e(131 -131) =     -4.26540  eV     1   --> A              
     e(132 -132) =     -4.10975  eV     1   --> A              
     e(133 -133) =     -4.10012  eV     1   --> A              
     e(134 -134) =     -4.09832  eV     1   --> A              
     e(135 -135) =     -4.00548  eV     1   --> A              
     e(136 -136) =     -3.94515  eV     1   --> A              
     e(137 -137) =     -3.91347  eV     1   --> A              
     e(138 -138) =     -3.86265  eV     1   --> A              
     e(139 -139) =     -3.84646  eV     1   --> A              
     e(140 -140) =     -3.84272  eV     1   --> A              
     e(141 -141) =     -3.79239  eV     1   --> A              
     e(142 -142) =     -3.78873  eV     1   --> A              
     e(143 -143) =     -3.78814  eV     1   --> A              
     e(144 -144) =     -3.72398  eV     1   --> A              
     e(145 -145) =     -3.71003  eV     1   --> A              
     e(146 -146) =     -3.70370  eV     1   --> A              
     e(147 -147) =     -3.62941  eV     1   --> A              
     e(148 -148) =     -3.58493  eV     1   --> A              
     e(149 -149) =     -3.39168  eV     1   --> A              
     e(150 -150) =     -3.38692  eV     1   --> A              
     e(151 -151) =     -3.37392  eV     1   --> A              
     e(152 -152) =     -3.24166  eV     1   --> A              
     e(153 -153) =     -3.19587  eV     1   --> A              
[...]
     e( 53 - 53) =    -15.49266  eV     1   --> A              
     e( 54 - 56) =    -15.30863  eV     3   -->   3 A              
     e( 57 - 57) =    -15.21965  eV     1   --> A              
     e( 58 - 60) =    -15.10828  eV     3   -->   3 A              
     e( 61 - 63) =    -12.58385  eV     3   -->   3 A              
     e( 64 - 64) =    -12.24877  eV     1   --> A              
     e( 65 - 65) =    -10.89158  eV     1   --> A              
     e( 66 - 67) =    -10.89147  eV     2   -->   2 A              
     e( 68 - 68) =    -10.52606  eV     1   --> A              
     e( 69 - 69) =     -9.40467  eV     1   --> A              
     e( 70 - 71) =     -9.40453  eV     2   -->   2 A              
     e( 72 - 72) =     -9.06467  eV     1   --> A              
     e( 73 - 75) =     -8.78825  eV     3   -->   3 A              
     e( 76 - 76) =     -8.56081  eV     1   --> A              
     e( 77 - 77) =     -8.54761  eV     1   --> A              
     e( 78 - 78) =     -8.39568  eV     1   --> A              
     e( 79 - 79) =     -8.30081  eV     1   --> A              
     e( 80 - 81) =     -8.30067  eV     2   -->   2 A              
     e( 82 - 84) =     -8.22997  eV     3   -->   3 A              
     e( 85 - 85) =     -7.67007  eV     1   --> A              
     e( 86 - 88) =     -7.52415  eV     3   -->   3 A              
     e( 89 - 89) =     -7.05196  eV     1   --> A              
     e( 90 - 92) =     -6.93920  eV     3   -->   3 A              
     e( 93 - 93) =     -6.22676  eV     1   --> A              
     e( 94 - 94) =     -6.20095  eV     1   --> A              
     e( 95 - 96) =     -6.20082  eV     2   -->   2 A              
     e( 97 - 97) =     -6.18421  eV     1   --> A              
     e( 98 - 98) =     -6.08092  eV     1   --> A              
     e( 99 - 99) =     -6.08061  eV     1   --> A              
     e(100 -100) =     -6.08032  eV     1   --> A              
     e(101 -101) =     -5.84536  eV     1   --> A              
     e(102 -104) =     -5.77877  eV     3   -->   3 A              
     e(105 -105) =     -5.73780  eV     1   --> A              
     e(106 -106) =     -5.61820  eV     1   --> A              
     e(107 -107) =     -5.61806  eV     1   --> A              
     e(108 -108) =     -5.61794  eV     1   --> A              
     e(109 -110) =     -5.50593  eV     2   -->   2 A              
     e(111 -111) =     -5.50573  eV     1   --> A              
     e(112 -112) =     -5.36182  eV     1   --> A              
     e(113 -113) =     -5.34331  eV     1   --> A              
     e(114 -116) =     -5.34319  eV     3   -->   3 A              
     e(117 -117) =     -4.98926  eV     1   --> A              
     e(118 -120) =     -4.90734  eV     3   -->   3 A              
     e(121 -123) =     -4.68467  eV     3   -->   3 A              
     e(124 -124) =     -4.57829  eV     1   --> A              
     e(125 -125) =     -4.53165  eV     1   --> A              
     e(126 -128) =     -4.51418  eV     3   -->   3 A              
     e(129 -129) =     -4.31978  eV     1   --> A              
     e(130 -132) =     -4.30941  eV     3   -->   3 A              
     e(133 -135) =     -3.99624  eV     3   -->   3 A              
     e(136 -136) =     -3.99096  eV     1   --> A              
     e(137 -137) =     -3.89666  eV     1   --> A              
     e(138 -139) =     -3.89653  eV     2   -->   2 A              
     e(140 -142) =     -3.81076  eV     3   -->   3 A              
     e(143 -143) =     -3.79056  eV     1   --> A              
     e(144 -144) =     -3.68870  eV     1   --> A              
     e(145 -145) =     -3.68517  eV     1   --> A              
     e(146 -147) =     -3.62685  eV     2   -->   2 A              
     e(148 -148) =     -3.62662  eV     1   --> A              
     e(149 -151) =     -3.52511  eV     3   -->   3 A              
     e(152 -152) =     -3.38387  eV     1   --> A              
     e(153 -154) =     -3.27512  eV     2   -->   2 A              
     e(155 -155) =     -3.27473  eV     1   --> A              
     e(156 -156) =     -3.01557  eV     1   --> A              
     e(157 -157) =     -0.94148  eV     1   --> A              
     e(158 -158) =     -0.76780  eV     1   --> A              
     e(159 -160) =     -0.76761  eV     2   -->   2 A              
     e(161 -161) =     -0.31828  eV     1   --> A              
     e(162 -162) =     -0.05512  eV     1   --> A              
     e(163 -163) =      0.00033  eV     1   --> A              
     e(164 -164) =      0.00043  eV     1   --> A              
     e(165 -165) =      0.00056  eV     1   --> A              
     e(166 -166) =      0.28597  eV     1   --> A              
     e(167 -169) =      0.44961  eV     3   -->   3 A              
     e(170 -170) =      0.50726  eV     1   --> A              
     e(171 -172) =      0.52569  eV     2   -->   2 A              
     e(173 -173) =      0.52591  eV     1   --> A              
     e(174 -174) =      0.61128  eV     1   --> A              
     e(175 -177) =      0.73017  eV     3   -->   3 A              
     e(178 -179) =      1.03067  eV     2   -->   2 A              
     e(180 -180) =      1.03085  eV     1   --> A              
     e(181 -181) =      1.17554  eV     1   --> A              
     e(182 -184) =      1.70218  eV     3   -->   3 A              
     e(185 -185) =      1.72006  eV     1   --> A              
     e(186 -186) =      1.72018  eV     1   --> A              
     e(187 -187) =      1.72032  eV     1   --> A              
     e(188 -188) =      1.73823  eV     1   --> A              
     e(189 -189) =      2.07198  eV     1   --> A              
     e(190 -192) =      2.08749  eV     3   -->   3 A              
     e(193 -193) =      2.51500  eV     1   --> A              
     e(194 -194) =      2.61851  eV     1   --> A              
     e(195 -195) =      2.61866  eV     1   --> A              
     e(196 -196) =      2.61885  eV     1   --> A              
     e(197 -197) =      2.78972  eV     1   --> A              
     e(198 -199) =      2.78985  eV     2   -->   2 A              
     e(200 -200) =      2.87259  eV     1   --> A              
     e(201 -201) =      2.89988  eV     1   --> A              
     e(202 -203) =      2.90000  eV     2   -->   2 A              
     e(204 -204) =      3.00774  eV     1   --> A              
     e(205 -207) =      3.15009  eV     3   -->   3 A              
     e(208 -208) =      3.27400  eV     1   --> A              
     e(209 -210) =      3.27411  eV     2   -->   2 A              
     e(211 -211) =      3.33820  eV     1   --> A              
     e(212 -212) =      3.33831  eV     1   --> A              
     e(213 -213) =      3.33843  eV     1   --> A              
     e(214 -214) =      3.66462  eV     1   --> A              
     e(215 -215) =      3.76329  eV     1   --> A              
     e(216 -216) =      3.76340  eV     1   --> A              
     e(217 -217) =      3.76352  eV     1   --> A              
     e(218 -218) =      3.87971  eV     1   --> A              
     e(219 -220) =      3.89923  eV     2   -->   2 A              
     e(221 -221) =      3.89952  eV     1   --> A              
     e(222 -222) =      3.93058  eV     1   --> A              
     e(223 -223) =      4.02692  eV     1   --> A              
     e(224 -224) =      4.17747  eV     1   --> A              
     e(225 -225) =      4.17759  eV     1   --> A              
     e(226 -226) =      4.17787  eV     1   --> A              
     e(227 -227) =      4.20341  eV     1   --> A              
     e(228 -228) =      4.45661  eV     1   --> A              
     e(229 -229) =      4.45671  eV     1   --> A              
     e(230 -230) =      4.45682  eV     1   --> A              
     e(231 -231) =      4.49107  eV     1   --> A              
     e(232 -232) =      4.54259  eV     1   --> A              
     e(233 -233) =      4.56619  eV     1   --> A              
     e(234 -235) =      4.56635  eV     2   -->   2 A              
     e(236 -236) =      4.62038  eV     1   --> A              
     e(237 -237) =      4.69060  eV     1   --> A              
     e(238 -238) =      4.70500  eV     1   --> A              
     e(239 -239) =      4.71340  eV     1   --> A              
     e(240 -240) =      4.71350  eV     1   --> A              
     e(241 -241) =      4.71363  eV     1   --> A              
     e(242 -244) =      4.96245  eV     3   -->   3 A              
     e(245 -245) =      4.99104  eV     1   --> A              
     e(246 -246) =      5.10629  eV     1   --> A              
     e(247 -248) =      5.11965  eV     2   -->   2 A              
     e(249 -249) =      5.12378  eV     1   --> A              
     e(250 -250) =      5.14967  eV     1   --> A              

 **************************************************************************

 **************************************************************************

                    xk=(   0.33330,   0.57729,   0.23084  )

     Band symmetry, C_1 (1)     point group:

     e(  1 -  4) =   -114.16840  eV     4   -->   4 A              
     e(  5 - 12) =    -71.64072  eV     8   -->   8 A              
     e( 13 - 16) =    -71.46825  eV     4   -->   4 A              
     e( 17 - 18) =    -18.62205  eV     2   -->   2 A              
     e( 19 - 19) =    -18.62184  eV     1   --> A              
     e( 20 - 20) =    -18.53575  eV     1   --> A              
     e( 21 - 23) =    -17.73908  eV     3   -->   3 A              
     e( 24 - 24) =    -17.73126  eV     1   --> A              
     e( 25 - 25) =    -17.32938  eV     1   --> A              
     e( 26 - 28) =    -17.31091  eV     3   -->   3 A              
     e( 29 - 31) =    -17.13128  eV     3   -->   3 A              
     e( 32 - 32) =    -17.02904  eV     1   --> A              
     e( 33 - 35) =    -17.02890  eV     3   -->   3 A              
     e( 36 - 36) =    -17.02864  eV     1   --> A              
     e( 37 - 39) =    -17.02485  eV     3   -->   3 A              
     e( 40 - 40) =    -17.01646  eV     1   --> A              
     e( 41 - 43) =    -16.97848  eV     3   -->   3 A              
     e( 44 - 44) =    -16.84720  eV     1   --> A              
     e( 45 - 45) =    -16.19564  eV     1   --> A              
     e( 46 - 48) =    -15.97818  eV     3   -->   3 A              
     e( 49 - 49) =    -15.97160  eV     1   --> A              
     e( 50 - 52) =    -15.75722  eV     3   -->   3 A              
     e( 53 - 53) =    -15.49266  eV     1   --> A              
     e( 54 - 56) =    -15.30863  eV     3   -->   3 A              
     e( 57 - 57) =    -15.21965  eV     1   --> A              
     e( 58 - 60) =    -15.10828  eV     3   -->   3 A              
     e( 61 - 63) =    -12.58385  eV     3   -->   3 A              
     e( 64 - 64) =    -12.24877  eV     1   --> A              
     e( 65 - 65) =    -10.89158  eV     1   --> A              
     e( 66 - 67) =    -10.89147  eV     2   -->   2 A              
     e( 68 - 68) =    -10.52606  eV     1   --> A              
     e( 69 - 69) =     -9.40467  eV     1   --> A              
     e( 70 - 71) =     -9.40453  eV     2   -->   2 A              
     e( 72 - 72) =     -9.06467  eV     1   --> A              
     e( 73 - 75) =     -8.78825  eV     3   -->   3 A              
     e( 76 - 76) =     -8.56081  eV     1   --> A              
     e( 77 - 77) =     -8.54761  eV     1   --> A              
     e( 78 - 78) =     -8.39568  eV     1   --> A              
     e( 79 - 79) =     -8.30081  eV     1   --> A              
     e( 80 - 81) =     -8.30067  eV     2   -->   2 A              
     e( 82 - 84) =     -8.22997  eV     3   -->   3 A              
     e( 85 - 85) =     -7.67007  eV     1   --> A              
     e( 86 - 88) =     -7.52415  eV     3   -->   3 A              
     e( 89 - 89) =     -7.05196  eV     1   --> A              
     e( 90 - 92) =     -6.93920  eV     3   -->   3 A              
     e( 93 - 93) =     -6.22676  eV     1   --> A              
     e( 94 - 94) =     -6.20095  eV     1   --> A              
     e( 95 - 96) =     -6.20083  eV     2   -->   2 A              
     e( 97 - 97) =     -6.18421  eV     1   --> A              
     e( 98 - 98) =     -6.08092  eV     1   --> A              
     e( 99 - 99) =     -6.08061  eV     1   --> A              
     e(100 -100) =     -6.08032  eV     1   --> A              
     e(101 -101) =     -5.84536  eV     1   --> A              
     e(102 -104) =     -5.77877  eV     3   -->   3 A              
     e(105 -105) =     -5.73780  eV     1   --> A              
     e(106 -106) =     -5.61820  eV     1   --> A              
     e(107 -107) =     -5.61806  eV     1   --> A              
     e(108 -108) =     -5.61794  eV     1   --> A              
     e(109 -110) =     -5.50593  eV     2   -->   2 A              
     e(111 -111) =     -5.50573  eV     1   --> A              
     e(112 -112) =     -5.36182  eV     1   --> A              
     e(113 -113) =     -5.34331  eV     1   --> A              
     e(114 -116) =     -5.34319  eV     3   -->   3 A              
     e(117 -117) =     -4.98926  eV     1   --> A              
     e(118 -120) =     -4.90734  eV     3   -->   3 A              
     e(121 -123) =     -4.68467  eV     3   -->   3 A              
     e(124 -124) =     -4.57829  eV     1   --> A              
     e(125 -125) =     -4.53165  eV     1   --> A              
     e(126 -128) =     -4.51418  eV     3   -->   3 A              
     e(129 -129) =     -4.31978  eV     1   --> A              
     e(130 -132) =     -4.30941  eV     3   -->   3 A              
     e(133 -135) =     -3.99624  eV     3   -->   3 A              
     e(136 -136) =     -3.99096  eV     1   --> A              
     e(137 -137) =     -3.89666  eV     1   --> A              
     e(138 -139) =     -3.89653  eV     2   -->   2 A              
     e(140 -142) =     -3.81076  eV     3   -->   3 A              
     e(143 -143) =     -3.79056  eV     1   --> A              
     e(144 -144) =     -3.68870  eV     1   --> A              
     e(145 -145) =     -3.68517  eV     1   --> A              
     e(146 -147) =     -3.62685  eV     2   -->   2 A              
     e(148 -148) =     -3.62662  eV     1   --> A              
     e(149 -151) =     -3.52511  eV     3   -->   3 A              
     e(152 -152) =     -3.38387  eV     1   --> A              
     e(153 -154) =     -3.27512  eV     2   -->   2 A              
     e(155 -155) =     -3.27473  eV     1   --> A              
     e(156 -156) =     -3.01557  eV     1   --> A              
     e(157 -157) =     -0.94148  eV     1   --> A              
     e(158 -158) =     -0.76780  eV     1   --> A              
     e(159 -160) =     -0.76761  eV     2   -->   2 A              
     e(161 -161) =     -0.31828  eV     1   --> A              
     e(162 -162) =     -0.05512  eV     1   --> A              
     e(163 -163) =      0.00033  eV     1   --> A              
     e(164 -164) =      0.00043  eV     1   --> A              
     e(165 -165) =      0.00056  eV     1   --> A              
     e(166 -166) =      0.28597  eV     1   --> A              
     e(167 -169) =      0.44961  eV     3   -->   3 A              
     e(170 -170) =      0.50726  eV     1   --> A              
     e(171 -172) =      0.52569  eV     2   -->   2 A              
     e(173 -173) =      0.52591  eV     1   --> A              
     e(174 -174) =      0.61129  eV     1   --> A              
     e(175 -177) =      0.73017  eV     3   -->   3 A              
     e(178 -179) =      1.03067  eV     2   -->   2 A              
     e(180 -180) =      1.03085  eV     1   --> A              
     e(181 -181) =      1.17554  eV     1   --> A              
     e(182 -184) =      1.70218  eV     3   -->   3 A              
     e(185 -185) =      1.72006  eV     1   --> A              
     e(186 -186) =      1.72018  eV     1   --> A              
     e(187 -187) =      1.72032  eV     1   --> A              
     e(188 -188) =      1.73823  eV     1   --> A              
     e(189 -189) =      2.07198  eV     1   --> A              
     e(190 -192) =      2.08749  eV     3   -->   3 A              
     e(193 -193) =      2.51500  eV     1   --> A              
     e(194 -194) =      2.61852  eV     1   --> A              
     e(195 -195) =      2.61867  eV     1   --> A              
     e(196 -196) =      2.61886  eV     1   --> A              
     e(197 -197) =      2.78969  eV     1   --> A              
     e(198 -199) =      2.78982  eV     2   -->   2 A              
     e(200 -200) =      2.87259  eV     1   --> A              
     e(201 -201) =      2.90009  eV     1   --> A              
     e(202 -203) =      2.90021  eV     2   -->   2 A              
     e(204 -204) =      3.00774  eV     1   --> A              
     e(205 -207) =      3.14870  eV     3   -->   3 A              
     e(208 -208) =      3.27432  eV     1   --> A              
     e(209 -210) =      3.27444  eV     2   -->   2 A              
     e(211 -211) =      3.34011  eV     1   --> A              
     e(212 -212) =      3.34022  eV     1   --> A              
     e(213 -213) =      3.34034  eV     1   --> A              
     e(214 -214) =      3.66464  eV     1   --> A              
     e(215 -215) =      3.75859  eV     1   --> A              
     e(216 -216) =      3.75870  eV     1   --> A              
     e(217 -217) =      3.75882  eV     1   --> A              
     e(218 -218) =      3.87957  eV     1   --> A              
     e(219 -220) =      3.90361  eV     2   -->   2 A              
     e(221 -221) =      3.90391  eV     1   --> A              
     e(222 -222) =      3.93039  eV     1   --> A              
     e(223 -223) =      4.02662  eV     1   --> A              
     e(224 -224) =      4.17736  eV     1   --> A              
     e(225 -225) =      4.17749  eV     1   --> A              
     e(226 -226) =      4.17776  eV     1   --> A              
     e(227 -227) =      4.20429  eV     1   --> A              
     e(228 -228) =      4.45514  eV     1   --> A              
     e(229 -229) =      4.45524  eV     1   --> A              
     e(230 -230) =      4.45534  eV     1   --> A              
     e(231 -231) =      4.49687  eV     1   --> A              
     e(232 -232) =      4.55113  eV     1   --> A              
     e(233 -233) =      4.56623  eV     1   --> A              
     e(234 -235) =      4.56639  eV     2   -->   2 A              
     e(236 -236) =      4.61723  eV     1   --> A              
     e(237 -237) =      4.67815  eV     1   --> A              
     e(238 -238) =      4.69197  eV     1   --> A              
     e(239 -239) =      4.71414  eV     1   --> A              
     e(240 -240) =      4.71424  eV     1   --> A              
     e(241 -241) =      4.71438  eV     1   --> A              
     e(242 -244) =      4.96265  eV     3   -->   3 A              
     e(245 -245) =      4.99498  eV     1   --> A              
     e(246 -246) =      5.11861  eV     1   --> A              
     e(247 -247) =      5.11916  eV     1   --> A              
     e(248 -248) =      5.12393  eV     1   --> A              
     e(249 -249) =      5.12418  eV     1   --> A              
     e(250 -250) =      5.14958  eV     1   --> A              

 **************************************************************************
 
     BANDS        :    203.97s CPU    301.04s WALL

 
   This run was terminated on:   8:37:22  16Dec2025            

=------------------------------------------------------------------------------=
   JOB DONE.
=------------------------------------------------------------------------------=
