
     Program PWSCF v.7.3.1 starts on 15Dec2025 at 17:56:28 

     This program is part of the open-source Quantum ESPRESSO suite
     for quantum simulation of materials; please cite
         "P. Giannozzi et al., J. Phys.:Condens. Matter 21 395502 (2009);
         "P. Giannozzi et al., J. Phys.:Condens. Matter 29 465901 (2017);
         "P. Giannozzi et al., J. Chem. Phys. 152 154105 (2020);
          URL http://www.quantum-espresso.org", 
     in publications or presentations arising from this work. More details at
     http://www.quantum-espresso.org/quote

     Parallel version (MPI & OpenMP), running on      64 processor cores
     Number of MPI processes:                64
     Threads/MPI process:                     1

     MPI processes distributed on     1 nodes
     453401 MiB available memory on the printing compute node when the environment starts
 
     Waiting for input...
     Reading input from standard input
Warning: card &IONS ignored
Warning: card / ignored
Warning: card &CELL ignored
Warning: card   PRESS = 0.0, ignored
Warning: card / ignored

     Current dimensions of program PWSCF are:
     Max number of different atomic species (ntypx) = 10
     Max number of k-points (npk) =  40000
     Max angular momentum in pseudopotentials (lmaxx) =  4

     IMPORTANT: XC functional enforced from input :
     Exchange-correlation= PBE
                           (   1   4   3   4   0   0   0)
     Any further DFT definition will be discarded
     Please, verify this is what you really want


     Atomic positions and unit cell read from directory:
     ./test.save/
 
 
     R & G space division:  proc/nbgrp/npool/nimage =      64
     Subspace diagonalization in iterative solution of the eigenvalue problem:
     one sub-group per band group will be used
     ELPA distributed-memory algorithm (size of sub-group:  3*  3 procs)

 
     Parallelization info
     --------------------
     sticks:   dense  smooth     PW     G-vecs:    dense   smooth      PW
     Min         180      90     23                33956    12002    1631
     Max         181      91     24                33969    12012    1652
     Sum       11557    5773   1531              2173495   768463  105205
 
     Using Slab Decomposition
 


     bravais-lattice index     =            4
     lattice parameter (alat)  =      22.8869  a.u.
     unit-cell volume          =   22488.0312 (a.u.)^3
     number of atoms/cell      =           40
     number of atomic types    =            4
     number of electrons       =       312.00
     number of Kohn-Sham states=          250
     kinetic-energy cutoff     =      40.0000  Ry
     charge density cutoff     =     320.0000  Ry
     Exchange-correlation= PBE
                           (   1   4   3   4   0   0   0)

     celldm(1)=  22.886890  celldm(2)=   0.000000  celldm(3)=   2.166010
     celldm(4)=   0.000000  celldm(5)=   0.000000  celldm(6)=   0.000000

     crystal axes: (cart. coord. in units of alat)
               a(1) = (   1.000000   0.000000   0.000000 )  
               a(2) = (  -0.500000   0.866025   0.000000 )  
               a(3) = (   0.000000   0.000000   2.166010 )  

     reciprocal axes: (cart. coord. in units 2 pi/alat)
               b(1) = (  1.000000  0.577350  0.000000 )  
               b(2) = (  0.000000  1.154701  0.000000 )  
               b(3) = (  0.000000  0.000000  0.461678 )  


     PseudoPot. # 1 for Cu read from file:
     ./cu_pbe_v1.2.uspp.F.UPF
     MD5 check sum: 6e991ff952a84172a2a52a1c1e996048
     Pseudo is Ultrasoft + core correction, Zval = 19.0
     Generated by new atomic code, or converted to UPF format
     Using radial grid of  867 points,  6 beta functions with: 
                l(1) =   0
                l(2) =   0
                l(3) =   1
                l(4) =   1
                l(5) =   2
                l(6) =   2
     Q(r) pseudized with  8 coefficients,  rinner =    1.150   1.150   1.150
                                                       1.150   1.150

     PseudoPot. # 2 for In read from file:
     ./in_pbe_v1.4.uspp.F.UPF
     MD5 check sum: 90777abd96fbb83f2e67db2a40c566b9
     Pseudo is Ultrasoft + core correction, Zval = 13.0
     Generated by new atomic code, or converted to UPF format
     Using radial grid of  889 points,  6 beta functions with: 
                l(1) =   0
                l(2) =   0
                l(3) =   1
                l(4) =   1
                l(5) =   2
                l(6) =   2
     Q(r) pseudized with  6 coefficients,  rinner =    1.400   1.400   1.400
                                                       1.400   1.400

     PseudoPot. # 3 for P  read from file:
     ./p_pbe_v1.5.uspp.F.UPF
     MD5 check sum: eb82b2c351da08c5f5f8709277dc7ee5
     Pseudo is Ultrasoft + core correction, Zval =  5.0
     Generated by new atomic code, or converted to UPF format
     Using radial grid of  903 points,  6 beta functions with: 
                l(1) =   0
                l(2) =   0
                l(3) =   1
                l(4) =   1
                l(5) =   2
                l(6) =   2
     Q(r) pseudized with  8 coefficients,  rinner =    1.300   1.300   1.300
                                                       1.300   1.300

     PseudoPot. # 4 for S  read from file:
     ./s_pbe_v1.4.uspp.F.UPF
     MD5 check sum: 88d86576ff6df21479756cfb9bdac1df
     Pseudo is Ultrasoft + core correction, Zval =  6.0
     Generated by new atomic code, or converted to UPF format
     Using radial grid of  907 points,  6 beta functions with: 
                l(1) =   0
                l(2) =   0
                l(3) =   1
                l(4) =   1
                l(5) =   2
                l(6) =   2
     Q(r) pseudized with  8 coefficients,  rinner =    1.300   1.300   1.300
                                                       1.300   1.300

     atomic species   valence    mass     pseudopotential
     Cu               19.00    63.54600     Cu( 1.00)
     In               13.00   114.81800     In( 1.00)
     P                 5.00    30.97400     P ( 1.00)
     S                 6.00    32.06500     S ( 1.00)

     No symmetry found



   Cartesian axes

     site n.     atom                  positions (alat units)
         1        Cu     tau(   1) = (   0.2498663   0.1443831   1.1978922  )
         2        Cu     tau(   2) = (  -0.0000672   0.5773736   1.1979169  )
         3        Cu     tau(   3) = (   0.7499644   0.1443517   1.1979123  )
         4        Cu     tau(   4) = (   0.4999466   0.5774254   1.1978887  )
         5        In     tau(   5) = (   0.9999197   0.0000468   1.0672493  )
         6        In     tau(   6) = (   0.7499108   0.4330605   1.0672255  )
         7        In     tau(   7) = (   0.4999235   0.0000479   1.0672231  )
         8        In     tau(   8) = (   0.2499270   0.4330513   1.0672283  )
         9        P      tau(   9) = (  -0.0000809   0.2887227   0.9908135  )
        10        P      tau(  10) = (  -0.2500750   0.7217381   0.9908071  )
        11        P      tau(  11) = (   0.4999255   0.2887218   0.9907940  )
        12        P      tau(  12) = (   0.2499241   0.7217304   0.9908125  )
        13        P      tau(  13) = (  -0.0000850   0.2887225   1.1767547  )
        14        P      tau(  14) = (  -0.2500581   0.7217354   1.1767473  )
        15        P      tau(  15) = (   0.4999306   0.2887106   1.1767325  )
        16        P      tau(  16) = (   0.2499222   0.7217109   1.1767527  )
        17        S      tau(  17) = (  -0.0887860   0.1535944   0.9472668  )
        18        S      tau(  18) = (  -0.3387891   0.5866155   0.9472592  )
        19        S      tau(  19) = (   0.4112183   0.1535966   0.9472430  )
        20        S      tau(  20) = (   0.1612157   0.5866062   0.9472582  )
        21        S      tau(  21) = (   0.4113013   0.7124836   0.9472623  )
        22        S      tau(  22) = (   0.6613012   0.2794689   0.9472401  )
        23        S      tau(  23) = (  -0.0887006   0.7124776   0.9472488  )
        24        S      tau(  24) = (   0.1612965   0.2794566   0.9472653  )
        25        S      tau(  25) = (  -0.3227505   0.8661250   0.9472706  )
        26        S      tau(  26) = (  -0.0727457   0.4331126   0.9472691  )
        27        S      tau(  27) = (   0.1772624   0.8661242   0.9472745  )
        28        S      tau(  28) = (   0.4272573   0.4331134   0.9472598  )
        29        S      tau(  29) = (   0.3419158   0.8551497   1.2285439  )
        30        S      tau(  30) = (   0.5918981   0.4221770   1.2285023  )
        31        S      tau(  31) = (  -0.1580896   0.8552029   1.2285008  )
        32        S      tau(  32) = (   0.0919167   0.4221594   1.2285280  )
        33        S      tau(  33) = (   0.0694755   0.1423284   1.2285350  )
        34        S      tau(  34) = (  -0.1804839   0.5753431   1.2285096  )
        35        S      tau(  35) = (   0.5695365   0.1423308   1.2284919  )
        36        S      tau(  36) = (   0.3195240   0.5753273   1.2285012  )
        37        S      tau(  37) = (  -0.4116178   0.7346756   1.2285323  )
        38        S      tau(  38) = (  -0.1616507   0.3016527   1.2285132  )
        39        S      tau(  39) = (   0.0883573   0.7346491   1.2285147  )
        40        S      tau(  40) = (   0.3383626   0.3016256   1.2285013  )

     -------------------------------------------------
     Parameters for Dispersion (Grimme-D2) Correction:
     -------------------------------------------------
       atom      VdW radius       C_6     

        Cu         2.952        374.666
        In         3.160       1294.678
        P          3.222        271.980
        S          3.180        193.230

     number of k points=   221  Gaussian smearing, width (Ry)=  0.0100

     Number of k-points >= 100: set verbosity='high' to print them.

     Dense  grid:  2173495 G-vectors     FFT dimensions: ( 135, 135, 288)

     Smooth grid:   768463 G-vectors     FFT dimensions: (  96,  96, 200)

     Estimated max dynamical RAM per process >     150.61 MB

     Estimated total dynamical RAM >       9.41 GB

     The potential is recalculated from file :
     ./test.save/charge-density


     negative rho (up, down):  3.042E-03 0.000E+00
     Starting wfcs are  216 randomized atomic wfcs +   34 random wfcs

     Band Structure Calculation
     CG style diagonalization
     c_bands: 15 eigenvalues not converged
     c_bands: 12 eigenvalues not converged
     c_bands: 11 eigenvalues not converged
     c_bands: 10 eigenvalues not converged
     c_bands: 13 eigenvalues not converged
     c_bands: 12 eigenvalues not converged
     c_bands: 12 eigenvalues not converged
     c_bands: 13 eigenvalues not converged
     c_bands: 11 eigenvalues not converged
     c_bands: 12 eigenvalues not converged
     c_bands: 12 eigenvalues not converged
     c_bands: 13 eigenvalues not converged
     c_bands: 13 eigenvalues not converged
     c_bands: 17 eigenvalues not converged
     c_bands: 13 eigenvalues not converged
     c_bands: 15 eigenvalues not converged
     c_bands: 14 eigenvalues not converged
     c_bands: 14 eigenvalues not converged
     c_bands: 14 eigenvalues not converged
     c_bands: 14 eigenvalues not converged
     c_bands: 14 eigenvalues not converged
     c_bands: 14 eigenvalues not converged
     c_bands: 15 eigenvalues not converged
     c_bands: 14 eigenvalues not converged
     c_bands: 14 eigenvalues not converged
     c_bands: 14 eigenvalues not converged
     c_bands: 14 eigenvalues not converged
     c_bands: 15 eigenvalues not converged
     c_bands: 15 eigenvalues not converged
     c_bands: 13 eigenvalues not converged
     c_bands: 14 eigenvalues not converged
     c_bands: 15 eigenvalues not converged
     c_bands: 14 eigenvalues not converged
     c_bands: 14 eigenvalues not converged
     c_bands: 12 eigenvalues not converged
     c_bands: 14 eigenvalues not converged
     c_bands: 13 eigenvalues not converged
     c_bands: 15 eigenvalues not converged
     c_bands: 14 eigenvalues not converged
     c_bands: 14 eigenvalues not converged
     c_bands: 13 eigenvalues not converged
     c_bands: 13 eigenvalues not converged
     c_bands: 15 eigenvalues not converged
     c_bands: 13 eigenvalues not converged
     c_bands: 12 eigenvalues not converged
     c_bands: 15 eigenvalues not converged
     c_bands: 12 eigenvalues not converged
     c_bands: 13 eigenvalues not converged
     c_bands: 15 eigenvalues not converged
     c_bands: 14 eigenvalues not converged
     c_bands: 13 eigenvalues not converged
     c_bands: 13 eigenvalues not converged
     c_bands: 12 eigenvalues not converged
     c_bands: 13 eigenvalues not converged
     c_bands: 11 eigenvalues not converged
     c_bands: 11 eigenvalues not converged
     c_bands: 12 eigenvalues not converged
     c_bands: 11 eigenvalues not converged
     c_bands: 11 eigenvalues not converged
     c_bands: 13 eigenvalues not converged
     c_bands: 10 eigenvalues not converged
     c_bands: 14 eigenvalues not converged
     c_bands: 10 eigenvalues not converged
     c_bands: 10 eigenvalues not converged
     c_bands: 10 eigenvalues not converged
     c_bands: 10 eigenvalues not converged
     c_bands: 10 eigenvalues not converged
     c_bands: 14 eigenvalues not converged
     c_bands: 11 eigenvalues not converged
     c_bands: 13 eigenvalues not converged
     c_bands:  9 eigenvalues not converged
     c_bands: 11 eigenvalues not converged
     c_bands: 13 eigenvalues not converged
     c_bands: 14 eigenvalues not converged
     c_bands: 10 eigenvalues not converged
     c_bands: 14 eigenvalues not converged
     c_bands: 13 eigenvalues not converged
     c_bands: 13 eigenvalues not converged
     c_bands: 10 eigenvalues not converged
     c_bands: 12 eigenvalues not converged
     c_bands: 14 eigenvalues not converged
     c_bands: 12 eigenvalues not converged
     c_bands: 12 eigenvalues not converged
     c_bands: 14 eigenvalues not converged
     c_bands: 11 eigenvalues not converged
     c_bands: 11 eigenvalues not converged
     c_bands: 12 eigenvalues not converged
     c_bands: 13 eigenvalues not converged
     c_bands: 12 eigenvalues not converged
     c_bands: 11 eigenvalues not converged
     c_bands: 12 eigenvalues not converged
     c_bands: 12 eigenvalues not converged
     c_bands: 15 eigenvalues not converged
     c_bands: 16 eigenvalues not converged
     c_bands: 14 eigenvalues not converged
     c_bands: 15 eigenvalues not converged
     c_bands: 15 eigenvalues not converged
     c_bands: 14 eigenvalues not converged
     c_bands: 14 eigenvalues not converged
     c_bands: 14 eigenvalues not converged
     c_bands: 14 eigenvalues not converged
     c_bands: 14 eigenvalues not converged
     c_bands: 16 eigenvalues not converged
     c_bands: 15 eigenvalues not converged
     c_bands: 15 eigenvalues not converged
     c_bands: 14 eigenvalues not converged
     c_bands: 14 eigenvalues not converged
     c_bands: 14 eigenvalues not converged
     c_bands: 15 eigenvalues not converged
     c_bands: 14 eigenvalues not converged
     c_bands: 14 eigenvalues not converged
     c_bands: 14 eigenvalues not converged
     c_bands: 14 eigenvalues not converged
     c_bands: 14 eigenvalues not converged
     c_bands: 14 eigenvalues not converged
     c_bands: 15 eigenvalues not converged
     c_bands: 14 eigenvalues not converged
     c_bands: 15 eigenvalues not converged
     c_bands: 13 eigenvalues not converged
     c_bands: 12 eigenvalues not converged
     c_bands: 12 eigenvalues not converged
     c_bands: 11 eigenvalues not converged
     c_bands: 13 eigenvalues not converged
     c_bands: 14 eigenvalues not converged
     c_bands: 14 eigenvalues not converged
     c_bands: 13 eigenvalues not converged
     c_bands: 13 eigenvalues not converged
     c_bands: 13 eigenvalues not converged
     c_bands: 15 eigenvalues not converged
     c_bands: 13 eigenvalues not converged
     c_bands: 15 eigenvalues not converged
     c_bands: 15 eigenvalues not converged
     c_bands: 14 eigenvalues not converged
     c_bands: 13 eigenvalues not converged
     c_bands: 10 eigenvalues not converged
     c_bands: 13 eigenvalues not converged
     c_bands: 12 eigenvalues not converged
     c_bands: 13 eigenvalues not converged
     c_bands: 10 eigenvalues not converged
     c_bands: 14 eigenvalues not converged
     c_bands: 13 eigenvalues not converged
     c_bands: 13 eigenvalues not converged
     c_bands: 13 eigenvalues not converged
     c_bands: 13 eigenvalues not converged
     c_bands: 12 eigenvalues not converged
     c_bands: 12 eigenvalues not converged
     c_bands: 12 eigenvalues not converged
     c_bands: 11 eigenvalues not converged
     c_bands: 12 eigenvalues not converged
     c_bands: 11 eigenvalues not converged
     c_bands: 13 eigenvalues not converged
     c_bands: 14 eigenvalues not converged
     c_bands: 13 eigenvalues not converged
     c_bands: 11 eigenvalues not converged
     c_bands: 12 eigenvalues not converged
     c_bands: 14 eigenvalues not converged
     c_bands: 15 eigenvalues not converged
     c_bands: 13 eigenvalues not converged
     c_bands: 14 eigenvalues not converged
     c_bands: 14 eigenvalues not converged
     c_bands: 14 eigenvalues not converged
     c_bands: 15 eigenvalues not converged
     c_bands: 15 eigenvalues not converged
     c_bands: 14 eigenvalues not converged
     c_bands: 14 eigenvalues not converged
     c_bands: 14 eigenvalues not converged
     c_bands: 15 eigenvalues not converged
     c_bands: 14 eigenvalues not converged
     c_bands: 14 eigenvalues not converged
     c_bands: 14 eigenvalues not converged
     c_bands: 14 eigenvalues not converged
     c_bands: 15 eigenvalues not converged
     c_bands: 14 eigenvalues not converged
     c_bands: 14 eigenvalues not converged
     c_bands: 15 eigenvalues not converged
     c_bands: 14 eigenvalues not converged
     c_bands: 14 eigenvalues not converged
     c_bands: 14 eigenvalues not converged
     c_bands: 15 eigenvalues not converged
     c_bands: 15 eigenvalues not converged
     c_bands: 14 eigenvalues not converged
     c_bands: 15 eigenvalues not converged
     c_bands: 14 eigenvalues not converged
     c_bands: 14 eigenvalues not converged
     c_bands: 14 eigenvalues not converged
     c_bands: 14 eigenvalues not converged
     c_bands: 14 eigenvalues not converged
     c_bands: 14 eigenvalues not converged
     c_bands: 12 eigenvalues not converged
     c_bands: 13 eigenvalues not converged
     c_bands: 12 eigenvalues not converged
     c_bands: 16 eigenvalues not converged
     c_bands: 11 eigenvalues not converged
     c_bands: 14 eigenvalues not converged
     c_bands: 15 eigenvalues not converged
     c_bands: 14 eigenvalues not converged
     c_bands: 14 eigenvalues not converged
     c_bands: 15 eigenvalues not converged
     c_bands: 14 eigenvalues not converged
     c_bands: 13 eigenvalues not converged
     c_bands: 14 eigenvalues not converged
     c_bands: 13 eigenvalues not converged
     c_bands: 14 eigenvalues not converged
     c_bands: 13 eigenvalues not converged
     c_bands: 14 eigenvalues not converged
     c_bands: 17 eigenvalues not converged
     c_bands: 14 eigenvalues not converged
     c_bands: 14 eigenvalues not converged
     c_bands: 15 eigenvalues not converged
     c_bands: 15 eigenvalues not converged
     c_bands: 14 eigenvalues not converged
     c_bands: 16 eigenvalues not converged
     c_bands: 14 eigenvalues not converged
     c_bands: 16 eigenvalues not converged
     c_bands: 14 eigenvalues not converged
     c_bands: 15 eigenvalues not converged
     c_bands: 13 eigenvalues not converged
     c_bands: 15 eigenvalues not converged
     c_bands: 12 eigenvalues not converged
     c_bands: 14 eigenvalues not converged
     c_bands: 12 eigenvalues not converged

     ethr =  3.21E-12,  avg # of iterations = 77.9

     total cpu time spent up to now is    52382.1 secs

     End of band structure calculation

     Number of k-points >= 100: set verbosity='high' to print the bands.

     Writing all to output data dir ./test.save/ :
     XML data file, pseudopotentials, collected wavefunctions
 
     init_run     :      1.01s CPU      1.14s WALL (       1 calls)
     electrons    :  52063.83s CPU  52380.47s WALL (       1 calls)

     Called by init_run:
     wfcinit      :      0.00s CPU      0.00s WALL (       1 calls)
     potinit      :      0.05s CPU      0.09s WALL (       1 calls)
     hinit0       :      0.06s CPU      0.07s WALL (       1 calls)

     Called by electrons:
     c_bands      :  52063.83s CPU  52380.47s WALL (       1 calls)
     v_of_rho     :      0.04s CPU      0.05s WALL (       1 calls)
     newd         :      0.27s CPU      0.33s WALL (       1 calls)

     Called by c_bands:
     init_us_2    :      2.04s CPU      2.06s WALL (     221 calls)
     ccgdiagg     :  51670.22s CPU  51981.11s WALL (    1326 calls)
     wfcrot       :    346.48s CPU    349.30s WALL (    1326 calls)

     Called by *cgdiagg:
     h_psi        :  20983.48s CPU  21122.05s WALL ( 3893889 calls)
     s_psi        :  16400.42s CPU  16498.54s WALL ( 7786452 calls)

     Called by h_psi:
     h_psi:calbec :   9583.52s CPU   9647.28s WALL ( 3893889 calls)
     vloc_psi     :   2953.41s CPU   2980.13s WALL ( 3893889 calls)
     add_vuspsi   :   8397.03s CPU   8448.46s WALL ( 3893889 calls)
     hs_1psi      :  28925.92s CPU  29108.00s WALL ( 3892563 calls)
     s_1psi       :  16992.49s CPU  17084.65s WALL ( 3892563 calls)

     General routines
     calbec       :  18302.13s CPU  18419.14s WALL ( 7786452 calls)
     fft          :      0.03s CPU      0.04s WALL (      13 calls)
     ffts         :      0.00s CPU      0.00s WALL (       1 calls)
     fftw         :   1768.89s CPU   1784.94s WALL ( 8448126 calls)
     interpolate  :      0.00s CPU      0.01s WALL (       1 calls)
     davcio       :      0.10s CPU      3.25s WALL (     442 calls)
 
     Parallel routines
 
     PWSCF        :  52098.61s CPU  52445.43s WALL

 
   This run was terminated on:   8:30:33  16Dec2025            

=------------------------------------------------------------------------------=
   JOB DONE.
=------------------------------------------------------------------------------=
