
     Program PWSCF v.7.3.1 starts on 15Dec2025 at 11:35:15 

     This program is part of the open-source Quantum ESPRESSO suite
     for quantum simulation of materials; please cite
         "P. Giannozzi et al., J. Phys.:Condens. Matter 21 395502 (2009);
         "P. Giannozzi et al., J. Phys.:Condens. Matter 29 465901 (2017);
         "P. Giannozzi et al., J. Chem. Phys. 152 154105 (2020);
          URL http://www.quantum-espresso.org", 
     in publications or presentations arising from this work. More details at
     http://www.quantum-espresso.org/quote

     Parallel version (MPI & OpenMP), running on      64 processor cores
     Number of MPI processes:                64
     Threads/MPI process:                     1

     MPI processes distributed on     1 nodes
     479115 MiB available memory on the printing compute node when the environment starts
 
     Waiting for input...
     Reading input from standard input
Warning: card &IONS ignored
Warning: card / ignored
Warning: card &CELL ignored
Warning: card   PRESS = 0.0, ignored
Warning: card / ignored

     Current dimensions of program PWSCF are:
     Max number of different atomic species (ntypx) = 10
     Max number of k-points (npk) =  40000
     Max angular momentum in pseudopotentials (lmaxx) =  4

     IMPORTANT: XC functional enforced from input :
     Exchange-correlation= PBE
                           (   1   4   3   4   0   0   0)
     Any further DFT definition will be discarded
     Please, verify this is what you really want


     Atomic positions and unit cell read from directory:
     ./test.save/
 
 
     R & G space division:  proc/nbgrp/npool/nimage =      64
     Subspace diagonalization in iterative solution of the eigenvalue problem:
     one sub-group per band group will be used
     ELPA distributed-memory algorithm (size of sub-group:  3*  3 procs)

 
     Parallelization info
     --------------------
     sticks:   dense  smooth     PW     G-vecs:    dense   smooth      PW
     Min         180      90     24                33956    12002    1680
     Max         181      91     25                33969    12012    1689
     Sum       11557    5773   1555              2173495   768463  107785
 
     Using Slab Decomposition
 


     bravais-lattice index     =            4
     lattice parameter (alat)  =      22.8869  a.u.
     unit-cell volume          =   22488.0312 (a.u.)^3
     number of atoms/cell      =           40
     number of atomic types    =            4
     number of electrons       =       312.00
     number of Kohn-Sham states=          250
     kinetic-energy cutoff     =      40.0000  Ry
     charge density cutoff     =     320.0000  Ry
     Exchange-correlation= PBE
                           (   1   4   3   4   0   0   0)

     celldm(1)=  22.886890  celldm(2)=   0.000000  celldm(3)=   2.166010
     celldm(4)=   0.000000  celldm(5)=   0.000000  celldm(6)=   0.000000

     crystal axes: (cart. coord. in units of alat)
               a(1) = (   1.000000   0.000000   0.000000 )  
               a(2) = (  -0.500000   0.866025   0.000000 )  
               a(3) = (   0.000000   0.000000   2.166010 )  

     reciprocal axes: (cart. coord. in units 2 pi/alat)
               b(1) = (  1.000000  0.577350  0.000000 )  
               b(2) = (  0.000000  1.154701  0.000000 )  
               b(3) = (  0.000000  0.000000  0.461678 )  


     PseudoPot. # 1 for Cu read from file:
     ./cu_pbe_v1.2.uspp.F.UPF
     MD5 check sum: 6e991ff952a84172a2a52a1c1e996048
     Pseudo is Ultrasoft + core correction, Zval = 19.0
     Generated by new atomic code, or converted to UPF format
     Using radial grid of  867 points,  6 beta functions with: 
                l(1) =   0
                l(2) =   0
                l(3) =   1
                l(4) =   1
                l(5) =   2
                l(6) =   2
     Q(r) pseudized with  8 coefficients,  rinner =    1.150   1.150   1.150
                                                       1.150   1.150

     PseudoPot. # 2 for In read from file:
     ./in_pbe_v1.4.uspp.F.UPF
     MD5 check sum: 90777abd96fbb83f2e67db2a40c566b9
     Pseudo is Ultrasoft + core correction, Zval = 13.0
     Generated by new atomic code, or converted to UPF format
     Using radial grid of  889 points,  6 beta functions with: 
                l(1) =   0
                l(2) =   0
                l(3) =   1
                l(4) =   1
                l(5) =   2
                l(6) =   2
     Q(r) pseudized with  6 coefficients,  rinner =    1.400   1.400   1.400
                                                       1.400   1.400

     PseudoPot. # 3 for P  read from file:
     ./p_pbe_v1.5.uspp.F.UPF
     MD5 check sum: eb82b2c351da08c5f5f8709277dc7ee5
     Pseudo is Ultrasoft + core correction, Zval =  5.0
     Generated by new atomic code, or converted to UPF format
     Using radial grid of  903 points,  6 beta functions with: 
                l(1) =   0
                l(2) =   0
                l(3) =   1
                l(4) =   1
                l(5) =   2
                l(6) =   2
     Q(r) pseudized with  8 coefficients,  rinner =    1.300   1.300   1.300
                                                       1.300   1.300

     PseudoPot. # 4 for S  read from file:
     ./s_pbe_v1.4.uspp.F.UPF
     MD5 check sum: 88d86576ff6df21479756cfb9bdac1df
     Pseudo is Ultrasoft + core correction, Zval =  6.0
     Generated by new atomic code, or converted to UPF format
     Using radial grid of  907 points,  6 beta functions with: 
                l(1) =   0
                l(2) =   0
                l(3) =   1
                l(4) =   1
                l(5) =   2
                l(6) =   2
     Q(r) pseudized with  8 coefficients,  rinner =    1.300   1.300   1.300
                                                       1.300   1.300

     atomic species   valence    mass     pseudopotential
     Cu               19.00    63.54600     Cu( 1.00)
     In               13.00   114.81800     In( 1.00)
     P                 5.00    30.97400     P ( 1.00)
     S                 6.00    32.06500     S ( 1.00)

     No symmetry found



   Cartesian axes

     site n.     atom                  positions (alat units)
         1        Cu     tau(   1) = (   0.2498663   0.1443831   1.1978922  )
         2        Cu     tau(   2) = (  -0.0000672   0.5773736   1.1979169  )
         3        Cu     tau(   3) = (   0.7499644   0.1443517   1.1979123  )
         4        Cu     tau(   4) = (   0.4999466   0.5774254   1.1978887  )
         5        In     tau(   5) = (   0.9999197   0.0000468   1.0672493  )
         6        In     tau(   6) = (   0.7499108   0.4330605   1.0672255  )
         7        In     tau(   7) = (   0.4999235   0.0000479   1.0672231  )
         8        In     tau(   8) = (   0.2499270   0.4330513   1.0672283  )
         9        P      tau(   9) = (  -0.0000809   0.2887227   0.9908135  )
        10        P      tau(  10) = (  -0.2500750   0.7217381   0.9908071  )
        11        P      tau(  11) = (   0.4999255   0.2887218   0.9907940  )
        12        P      tau(  12) = (   0.2499241   0.7217304   0.9908125  )
        13        P      tau(  13) = (  -0.0000850   0.2887225   1.1767547  )
        14        P      tau(  14) = (  -0.2500581   0.7217354   1.1767473  )
        15        P      tau(  15) = (   0.4999306   0.2887106   1.1767325  )
        16        P      tau(  16) = (   0.2499222   0.7217109   1.1767527  )
        17        S      tau(  17) = (  -0.0887860   0.1535944   0.9472668  )
        18        S      tau(  18) = (  -0.3387891   0.5866155   0.9472592  )
        19        S      tau(  19) = (   0.4112183   0.1535966   0.9472430  )
        20        S      tau(  20) = (   0.1612157   0.5866062   0.9472582  )
        21        S      tau(  21) = (   0.4113013   0.7124836   0.9472623  )
        22        S      tau(  22) = (   0.6613012   0.2794689   0.9472401  )
        23        S      tau(  23) = (  -0.0887006   0.7124776   0.9472488  )
        24        S      tau(  24) = (   0.1612965   0.2794566   0.9472653  )
        25        S      tau(  25) = (  -0.3227505   0.8661250   0.9472706  )
        26        S      tau(  26) = (  -0.0727457   0.4331126   0.9472691  )
        27        S      tau(  27) = (   0.1772624   0.8661242   0.9472745  )
        28        S      tau(  28) = (   0.4272573   0.4331134   0.9472598  )
        29        S      tau(  29) = (   0.3419158   0.8551497   1.2285439  )
        30        S      tau(  30) = (   0.5918981   0.4221770   1.2285023  )
        31        S      tau(  31) = (  -0.1580896   0.8552029   1.2285008  )
        32        S      tau(  32) = (   0.0919167   0.4221594   1.2285280  )
        33        S      tau(  33) = (   0.0694755   0.1423284   1.2285350  )
        34        S      tau(  34) = (  -0.1804839   0.5753431   1.2285096  )
        35        S      tau(  35) = (   0.5695365   0.1423308   1.2284919  )
        36        S      tau(  36) = (   0.3195240   0.5753273   1.2285012  )
        37        S      tau(  37) = (  -0.4116178   0.7346756   1.2285323  )
        38        S      tau(  38) = (  -0.1616507   0.3016527   1.2285132  )
        39        S      tau(  39) = (   0.0883573   0.7346491   1.2285147  )
        40        S      tau(  40) = (   0.3383626   0.3016256   1.2285013  )

     -------------------------------------------------
     Parameters for Dispersion (Grimme-D2) Correction:
     -------------------------------------------------
       atom      VdW radius       C_6     

        Cu         2.952        374.666
        In         3.160       1294.678
        P          3.222        271.980
        S          3.180        193.230

     number of k points=    96  Gaussian smearing, width (Ry)=  0.0100
                       cart. coord. in units 2pi/alat
        k(    1) = (   0.0625000   0.1082532  -0.2308392), wk =   0.0208333
        k(    2) = (   0.0625000   0.2525907  -0.2308392), wk =   0.0208333
        k(    3) = (   0.0625000   0.3969283  -0.2308392), wk =   0.0208333
        k(    4) = (   0.0625000   0.5412659  -0.2308392), wk =   0.0208333
        k(    5) = (   0.0625000  -0.4690971  -0.2308392), wk =   0.0208333
        k(    6) = (   0.0625000  -0.3247595  -0.2308392), wk =   0.0208333
        k(    7) = (   0.0625000  -0.1804220  -0.2308392), wk =   0.0208333
        k(    8) = (   0.0625000  -0.0360844  -0.2308392), wk =   0.0208333
        k(    9) = (   0.1875000   0.3247595  -0.2308392), wk =   0.0208333
        k(   10) = (   0.1875000   0.4690971  -0.2308392), wk =   0.0208333
        k(   11) = (   0.1875000   0.6134347  -0.2308392), wk =   0.0208333
        k(   12) = (   0.1875000  -0.3969283  -0.2308392), wk =   0.0208333
        k(   13) = (   0.1875000  -0.2525907  -0.2308392), wk =   0.0208333
        k(   14) = (   0.1875000  -0.1082532  -0.2308392), wk =   0.0208333
        k(   15) = (   0.3125000   0.5412659  -0.2308392), wk =   0.0208333
        k(   16) = (   0.3125000   0.6856034  -0.2308392), wk =   0.0208333
        k(   17) = (   0.3125000  -0.3247595  -0.2308392), wk =   0.0208333
        k(   18) = (   0.3125000  -0.1804220  -0.2308392), wk =   0.0208333
        k(   19) = (   0.4375000   0.7577722  -0.2308392), wk =   0.0208333
        k(   20) = (   0.4375000  -0.2525907  -0.2308392), wk =   0.0208333
        k(   21) = (  -0.0625000   0.1082532   0.2308392), wk =   0.0208333
        k(   22) = (   0.1250000   0.0000000  -0.2308392), wk =   0.0208333
        k(   23) = (  -0.0625000   0.2525907   0.2308392), wk =   0.0208333
        k(   24) = (  -0.1875000   0.1804220  -0.2308392), wk =   0.0208333
        k(   25) = (   0.2500000   0.0721688  -0.2308392), wk =   0.0208333
        k(   26) = (  -0.1875000  -0.1804220   0.2308392), wk =   0.0208333
        k(   27) = (   0.2500000  -0.0721688   0.2308392), wk =   0.0208333
        k(   28) = (  -0.0625000   0.3969283   0.2308392), wk =   0.0208333
        k(   29) = (  -0.3125000   0.2525907  -0.2308392), wk =   0.0208333
        k(   30) = (   0.3750000   0.1443376  -0.2308392), wk =   0.0208333
        k(   31) = (  -0.3125000  -0.2525907   0.2308392), wk =   0.0208333
        k(   32) = (   0.3750000  -0.1443376   0.2308392), wk =   0.0208333
        k(   33) = (  -0.0625000   0.5412659   0.2308392), wk =   0.0208333
        k(   34) = (  -0.4375000   0.3247595  -0.2308392), wk =   0.0208333
        k(   35) = (   0.5000000   0.2165064  -0.2308392), wk =   0.0208333
        k(   36) = (  -0.4375000  -0.3247595   0.2308392), wk =   0.0208333
        k(   37) = (   0.5000000  -0.2165064   0.2308392), wk =   0.0208333
        k(   38) = (  -0.0625000  -0.4690971   0.2308392), wk =   0.0208333
        k(   39) = (   0.4375000  -0.1804220  -0.2308392), wk =   0.0208333
        k(   40) = (  -0.3750000  -0.2886751  -0.2308392), wk =   0.0208333
        k(   41) = (   0.4375000   0.1804220   0.2308392), wk =   0.0208333
        k(   42) = (  -0.3750000   0.2886751   0.2308392), wk =   0.0208333
        k(   43) = (  -0.0625000  -0.3247595   0.2308392), wk =   0.0208333
        k(   44) = (   0.3125000  -0.1082532  -0.2308392), wk =   0.0208333
        k(   45) = (  -0.2500000  -0.2165064  -0.2308392), wk =   0.0208333
        k(   46) = (   0.3125000   0.1082532   0.2308392), wk =   0.0208333
        k(   47) = (  -0.2500000   0.2165064   0.2308392), wk =   0.0208333
        k(   48) = (  -0.0625000  -0.1804220   0.2308392), wk =   0.0208333
        k(   49) = (   0.1875000  -0.0360844  -0.2308392), wk =   0.0208333
        k(   50) = (  -0.1250000  -0.1443376  -0.2308392), wk =   0.0208333
        k(   51) = (   0.1875000   0.0360844   0.2308392), wk =   0.0208333
        k(   52) = (  -0.1250000   0.1443376   0.2308392), wk =   0.0208333
        k(   53) = (  -0.0625000  -0.0360844   0.2308392), wk =   0.0208333
        k(   54) = (   0.0000000  -0.0721688  -0.2308392), wk =   0.0208333
        k(   55) = (  -0.1875000   0.3247595   0.2308392), wk =   0.0208333
        k(   56) = (   0.3750000   0.0000000  -0.2308392), wk =   0.0208333
        k(   57) = (  -0.1875000   0.4690971   0.2308392), wk =   0.0208333
        k(   58) = (  -0.3125000   0.3969283  -0.2308392), wk =   0.0208333
        k(   59) = (   0.5000000   0.0721688  -0.2308392), wk =   0.0208333
        k(   60) = (  -0.3125000  -0.3969283   0.2308392), wk =   0.0208333
        k(   61) = (   0.5000000  -0.0721688   0.2308392), wk =   0.0208333
        k(   62) = (  -0.1875000   0.6134347   0.2308392), wk =   0.0208333
        k(   63) = (  -0.4375000   0.4690971  -0.2308392), wk =   0.0208333
        k(   64) = (   0.6250000   0.1443376  -0.2308392), wk =   0.0208333
        k(   65) = (  -0.4375000  -0.4690971   0.2308392), wk =   0.0208333
        k(   66) = (   0.6250000  -0.1443376   0.2308392), wk =   0.0208333
        k(   67) = (  -0.1875000  -0.3969283   0.2308392), wk =   0.0208333
        k(   68) = (   0.4375000  -0.0360844  -0.2308392), wk =   0.0208333
        k(   69) = (  -0.2500000  -0.3608439  -0.2308392), wk =   0.0208333
        k(   70) = (   0.4375000   0.0360844   0.2308392), wk =   0.0208333
        k(   71) = (  -0.2500000   0.3608439   0.2308392), wk =   0.0208333
        k(   72) = (  -0.1875000  -0.2525907   0.2308392), wk =   0.0208333
        k(   73) = (   0.3125000   0.0360844  -0.2308392), wk =   0.0208333
        k(   74) = (  -0.1250000  -0.2886751  -0.2308392), wk =   0.0208333
        k(   75) = (   0.3125000  -0.0360844   0.2308392), wk =   0.0208333
        k(   76) = (  -0.1250000   0.2886751   0.2308392), wk =   0.0208333
        k(   77) = (  -0.1875000  -0.1082532   0.2308392), wk =   0.0208333
        k(   78) = (   0.0000000  -0.2165064  -0.2308392), wk =   0.0208333
        k(   79) = (  -0.3125000   0.5412659   0.2308392), wk =   0.0208333
        k(   80) = (   0.6250000   0.0000000  -0.2308392), wk =   0.0208333
        k(   81) = (  -0.3125000   0.6856034   0.2308392), wk =   0.0208333
        k(   82) = (  -0.4375000   0.6134347  -0.2308392), wk =   0.0208333
        k(   83) = (   0.7500000   0.0721688  -0.2308392), wk =   0.0208333
        k(   84) = (  -0.4375000  -0.6134347   0.2308392), wk =   0.0208333
        k(   85) = (   0.7500000  -0.0721688   0.2308392), wk =   0.0208333
        k(   86) = (  -0.3125000  -0.3247595   0.2308392), wk =   0.0208333
        k(   87) = (   0.4375000   0.1082532  -0.2308392), wk =   0.0208333
        k(   88) = (  -0.1250000  -0.4330127  -0.2308392), wk =   0.0208333
        k(   89) = (   0.4375000  -0.1082532   0.2308392), wk =   0.0208333
        k(   90) = (  -0.1250000   0.4330127   0.2308392), wk =   0.0208333
        k(   91) = (  -0.3125000  -0.1804220   0.2308392), wk =   0.0208333
        k(   92) = (   0.0000000  -0.3608439  -0.2308392), wk =   0.0208333
        k(   93) = (  -0.4375000   0.7577722   0.2308392), wk =   0.0208333
        k(   94) = (   0.8750000   0.0000000  -0.2308392), wk =   0.0208333
        k(   95) = (  -0.4375000  -0.2525907   0.2308392), wk =   0.0208333
        k(   96) = (   0.0000000  -0.5051815  -0.2308392), wk =   0.0208333

     Dense  grid:  2173495 G-vectors     FFT dimensions: ( 135, 135, 288)

     Smooth grid:   768463 G-vectors     FFT dimensions: (  96,  96, 200)

     Estimated max dynamical RAM per process >     150.61 MB

     Estimated total dynamical RAM >       9.41 GB

     The potential is recalculated from file :
     ./test.save/charge-density


     negative rho (up, down):  3.042E-03 0.000E+00
     Starting wfcs are  216 randomized atomic wfcs +   34 random wfcs

     Band Structure Calculation
     CG style diagonalization
     c_bands: 13 eigenvalues not converged
     c_bands: 14 eigenvalues not converged
     c_bands: 12 eigenvalues not converged
     c_bands: 14 eigenvalues not converged
     c_bands: 14 eigenvalues not converged
     c_bands: 13 eigenvalues not converged
     c_bands: 13 eigenvalues not converged
     c_bands: 14 eigenvalues not converged
     c_bands: 15 eigenvalues not converged
     c_bands: 14 eigenvalues not converged
     c_bands: 12 eigenvalues not converged
     c_bands: 13 eigenvalues not converged
     c_bands: 15 eigenvalues not converged
     c_bands: 12 eigenvalues not converged
     c_bands: 14 eigenvalues not converged
     c_bands: 13 eigenvalues not converged
     c_bands: 14 eigenvalues not converged
     c_bands: 12 eigenvalues not converged
     c_bands: 13 eigenvalues not converged
     c_bands: 15 eigenvalues not converged
     c_bands: 13 eigenvalues not converged
     c_bands: 11 eigenvalues not converged
     c_bands: 12 eigenvalues not converged
     c_bands: 12 eigenvalues not converged
     c_bands: 14 eigenvalues not converged
     c_bands: 13 eigenvalues not converged
     c_bands: 13 eigenvalues not converged
     c_bands: 14 eigenvalues not converged
     c_bands: 13 eigenvalues not converged
     c_bands: 13 eigenvalues not converged
     c_bands: 15 eigenvalues not converged
     c_bands: 13 eigenvalues not converged
     c_bands: 14 eigenvalues not converged
     c_bands: 14 eigenvalues not converged
     c_bands: 15 eigenvalues not converged
     c_bands: 14 eigenvalues not converged
     c_bands: 15 eigenvalues not converged
     c_bands: 14 eigenvalues not converged
     c_bands: 14 eigenvalues not converged
     c_bands: 14 eigenvalues not converged
     c_bands: 15 eigenvalues not converged
     c_bands: 12 eigenvalues not converged
     c_bands: 14 eigenvalues not converged
     c_bands: 15 eigenvalues not converged
     c_bands: 15 eigenvalues not converged
     c_bands: 14 eigenvalues not converged
     c_bands: 14 eigenvalues not converged
     c_bands: 10 eigenvalues not converged
     c_bands: 13 eigenvalues not converged
     c_bands: 13 eigenvalues not converged
     c_bands: 13 eigenvalues not converged
     c_bands: 11 eigenvalues not converged
     c_bands: 13 eigenvalues not converged
     c_bands: 14 eigenvalues not converged
     c_bands: 15 eigenvalues not converged
     c_bands: 14 eigenvalues not converged
     c_bands: 12 eigenvalues not converged
     c_bands: 14 eigenvalues not converged
     c_bands: 14 eigenvalues not converged
     c_bands: 11 eigenvalues not converged
     c_bands: 13 eigenvalues not converged
     c_bands: 14 eigenvalues not converged
     c_bands: 15 eigenvalues not converged
     c_bands: 12 eigenvalues not converged
     c_bands: 13 eigenvalues not converged
     c_bands: 13 eigenvalues not converged
     c_bands: 13 eigenvalues not converged
     c_bands: 14 eigenvalues not converged
     c_bands: 13 eigenvalues not converged
     c_bands: 14 eigenvalues not converged
     c_bands: 12 eigenvalues not converged
     c_bands: 15 eigenvalues not converged
     c_bands: 12 eigenvalues not converged
     c_bands: 14 eigenvalues not converged
     c_bands: 15 eigenvalues not converged
     c_bands: 13 eigenvalues not converged
     c_bands: 12 eigenvalues not converged
     c_bands: 11 eigenvalues not converged
     c_bands: 14 eigenvalues not converged
     c_bands: 15 eigenvalues not converged
     c_bands: 14 eigenvalues not converged
     c_bands: 13 eigenvalues not converged
     c_bands: 13 eigenvalues not converged
     c_bands: 13 eigenvalues not converged
     c_bands: 14 eigenvalues not converged
     c_bands: 14 eigenvalues not converged
     c_bands: 14 eigenvalues not converged
     c_bands: 12 eigenvalues not converged
     c_bands: 16 eigenvalues not converged
     c_bands: 13 eigenvalues not converged
     c_bands: 16 eigenvalues not converged
     c_bands: 16 eigenvalues not converged
     c_bands: 14 eigenvalues not converged
     c_bands: 15 eigenvalues not converged
     c_bands: 14 eigenvalues not converged
     c_bands: 13 eigenvalues not converged

     ethr =  3.21E-12,  avg # of iterations = 78.2

     total cpu time spent up to now is    22845.2 secs

     End of band structure calculation

          k = 0.0625 0.1083-0.2308 ( 96006 PWs)   bands (ev):

  -114.1684-114.1684-114.1684-114.1683 -71.6407 -71.6407 -71.6407 -71.6407
   -71.6406 -71.6406 -71.6405 -71.6405 -71.4682 -71.4682 -71.4682 -71.4681
   -18.7177 -18.5595 -18.5594 -18.5545 -17.7491 -17.7489 -17.7481 -17.7099
   -17.3212 -17.3127 -17.2808 -17.2784 -17.2781 -17.0643 -17.0640 -17.0578
   -17.0307 -17.0306 -17.0304 -17.0302 -17.0302 -17.0170 -17.0170 -17.0165
   -17.0000 -16.9234 -16.9232 -16.9142 -16.2338 -16.2228 -16.2219 -15.7949
   -15.7826 -15.7804 -15.6383 -15.6258 -15.5022 -15.4919 -15.4898 -15.1526
   -15.1468 -15.1461 -15.0400 -15.0300 -12.9960 -12.3727 -12.3726 -12.3534
   -11.2122 -10.7004 -10.7004 -10.6783  -9.5906  -9.3284  -9.3278  -9.3117
    -8.6493  -8.6410  -8.6260  -8.5716  -8.5403  -8.3315  -8.3216  -8.3118
    -8.0489  -8.0409  -8.0386  -7.9835  -7.9376  -7.4348  -7.4036  -7.3934
    -7.2465  -7.2416  -7.2248  -7.2221  -6.4318  -6.4304  -6.4262  -6.1669
    -6.1629  -6.1556  -6.0966  -5.8602  -5.8568  -5.8533  -5.8083  -5.7712
    -5.7500  -5.6400  -5.6390  -5.6377  -5.4335  -5.4292  -5.4201  -5.3928
    -5.3830  -5.1448  -5.1371  -5.1308  -4.9964  -4.9953  -4.9916  -4.7933
    -4.7353  -4.7337  -4.7280  -4.7079  -4.6640  -4.6548  -4.6363  -4.6322
    -4.2749  -4.2725  -4.2681  -4.1091  -4.1086  -4.1005  -4.0015  -3.9431
    -3.9189  -3.8565  -3.8515  -3.8425  -3.7923  -3.7896  -3.7806  -3.7264
    -3.7152  -3.7025  -3.6146  -3.5796  -3.3910  -3.3798  -3.3767  -3.2200
    -3.2196  -3.1848  -3.0177  -2.9779  -1.2106  -0.8110  -0.7842  -0.7834
    -0.2443   0.0137   0.0526   0.0634   0.1158   0.1294   0.1304   0.3421
     0.3676   0.3681   0.5463   0.5644   0.5647   0.5690   0.5699   0.8600
     0.9993   1.0166   1.0277   1.0986   1.3372   1.3550   1.3577   1.7647
     1.8093   1.9005   1.9011   1.9197   1.9540   2.1988   2.2123   2.2151
     2.4522   2.5471   2.5621   2.5756   2.5779   2.6118   2.7382   2.7630
     2.7632   2.8339   2.9067   3.0236   3.0379   3.0481   3.3483   3.3596
     3.4375   3.4820   3.6441   3.6484   3.6528   3.6941   3.7351   3.7559
     3.7777   3.8468   3.9068   3.9102   3.9197   3.9248   4.0107   4.0124
     4.0691   4.1018   4.1386   4.1599   4.1642   4.1739   4.2557   4.4037
     4.4087   4.4425   4.4491   4.4534   4.5826   4.5866   4.6513   4.7119
     4.7715   4.7860   4.9357   4.9600   4.9650   4.9995   5.0014   5.0524
     5.0525   5.1312

          k = 0.0625 0.2526-0.2308 ( 96096 PWs)   bands (ev):

  -114.1684-114.1684-114.1684-114.1683 -71.6407 -71.6407 -71.6407 -71.6407
   -71.6406 -71.6406 -71.6405 -71.6405 -71.4682 -71.4682 -71.4682 -71.4681
   -18.7036 -18.5759 -18.5629 -18.5520 -17.7475 -17.7460 -17.7440 -17.7168
   -17.3192 -17.2957 -17.2903 -17.2857 -17.2841 -17.0788 -17.0617 -17.0488
   -17.0304 -17.0301 -17.0300 -17.0297 -17.0296 -17.0192 -17.0179 -17.0168
   -16.9985 -16.9439 -16.9244 -16.9030 -16.2205 -16.1924 -16.1649 -15.8322
   -15.8080 -15.7686 -15.6944 -15.6429 -15.4966 -15.4681 -15.4433 -15.1654
   -15.1529 -15.1356 -15.0826 -15.0417 -12.9280 -12.4265 -12.3763 -12.3342
   -11.1665 -10.7525 -10.6969 -10.6481  -9.5660  -9.3484  -9.3082  -9.2672
    -8.7099  -8.6649  -8.6466  -8.6233  -8.4994  -8.3667  -8.3579  -8.3169
    -8.1170  -8.1012  -8.0709  -8.0500  -7.8773  -7.4940  -7.4371  -7.4026
    -7.1640  -7.1453  -7.1323  -7.1291  -6.3880  -6.3847  -6.3799  -6.1767
    -6.1717  -6.1331  -6.0638  -5.8574  -5.8553  -5.8424  -5.8344  -5.7850
    -5.7177  -5.6517  -5.6451  -5.6377  -5.4478  -5.4428  -5.4394  -5.4064
    -5.4026  -5.1883  -5.1585  -5.1536  -5.0144  -5.0023  -4.9978  -4.8327
    -4.7444  -4.7100  -4.6979  -4.6874  -4.6251  -4.5978  -4.5930  -4.5809
    -4.2663  -4.2588  -4.2445  -4.0901  -4.0666  -4.0587  -4.0557  -3.9549
    -3.8976  -3.8716  -3.8560  -3.8415  -3.8256  -3.7884  -3.7751  -3.7301
    -3.7206  -3.6784  -3.6737  -3.6291  -3.4201  -3.4046  -3.3730  -3.3102
    -3.2260  -3.1690  -3.1572  -3.0315  -1.0655  -0.8454  -0.7976  -0.7388
    -0.1486  -0.0615  -0.0109   0.0791   0.1373   0.1913   0.2638   0.3160
     0.3600   0.4291   0.5020   0.5243   0.5564   0.5830   0.5947   0.8671
     0.9093   0.9960   1.0138   1.0903   1.3181   1.3692   1.3954   1.7137
     1.8117   1.8369   1.8399   1.8403   2.0161   2.2051   2.2113   2.2509
     2.4701   2.4978   2.5346   2.5636   2.6306   2.6349   2.7207   2.7821
     2.8085   2.8688   2.9561   3.0470   3.0760   3.1321   3.2213   3.3036
     3.4583   3.4857   3.5139   3.5955   3.6237   3.6685   3.7279   3.7689
     3.7996   3.8216   3.8596   3.8664   3.9350   3.9794   4.0428   4.0662
     4.0838   4.1435   4.1835   4.2019   4.2118   4.2148   4.3478   4.3806
     4.3877   4.5164   4.5616   4.5745   4.6289   4.6572   4.7232   4.8158
     4.8221   4.8326   4.9141   4.9311   4.9326   4.9810   5.0246   5.0641
     5.0861   5.1967

          k = 0.0625 0.3969-0.2308 ( 96092 PWs)   bands (ev):

  -114.1684-114.1684-114.1684-114.1683 -71.6407 -71.6407 -71.6407 -71.6407
   -71.6406 -71.6406 -71.6405 -71.6405 -71.4682 -71.4682 -71.4682 -71.4681
   -18.6800 -18.6022 -18.5655 -18.5505 -17.7442 -17.7421 -17.7393 -17.7261
   -17.3152 -17.3113 -17.3050 -17.2955 -17.2387 -17.1097 -17.0573 -17.0420
   -17.0299 -17.0292 -17.0292 -17.0288 -17.0287 -17.0223 -17.0189 -17.0174
   -16.9953 -16.9676 -16.9233 -16.8921 -16.1962 -16.1566 -16.0716 -15.8784
   -15.8435 -15.7855 -15.7474 -15.6707 -15.4842 -15.4476 -15.3679 -15.1809
   -15.1620 -15.1501 -15.1181 -15.0613 -12.8214 -12.5170 -12.3754 -12.3168
   -11.0899 -10.8370 -10.6865 -10.6180  -9.5241  -9.3874  -9.2743  -9.2092
    -8.7563  -8.7131  -8.6911  -8.6896  -8.4377  -8.3780  -8.3677  -8.3292
    -8.2198  -8.1841  -8.1191  -8.1186  -7.7775  -7.5313  -7.4741  -7.4517
    -7.1076  -7.0710  -7.0133  -6.9992  -6.3425  -6.3289  -6.2871  -6.1869
    -6.1793  -6.0940  -6.0543  -5.9130  -5.8512  -5.8388  -5.8004  -5.7863
    -5.6797  -5.6769  -5.6518  -5.6482  -5.5017  -5.4797  -5.4298  -5.4053
    -5.3924  -5.2427  -5.2181  -5.2152  -4.9939  -4.9916  -4.9883  -4.8631
    -4.7150  -4.6924  -4.6670  -4.6523  -4.5806  -4.5622  -4.5512  -4.5359
    -4.2726  -4.2651  -4.2526  -4.1920  -4.0449  -4.0051  -4.0030  -3.9608
    -3.9488  -3.8569  -3.8505  -3.8418  -3.8360  -3.8102  -3.7615  -3.7439
    -3.7045  -3.6998  -3.6537  -3.6065  -3.4418  -3.4370  -3.3999  -3.3891
    -3.3464  -3.2192  -3.1346  -3.1226  -0.9016  -0.8759  -0.8250  -0.7139
    -0.1461  -0.0792  -0.0479   0.0741   0.1193   0.2073   0.3315   0.3697
     0.4148   0.4792   0.5048   0.5110   0.5313   0.6056   0.6849   0.8099
     0.8718   0.9370   1.0099   1.0725   1.3042   1.3977   1.4662   1.6620
     1.7670   1.7691   1.7899   1.8475   2.0637   2.1262   2.1457   2.2143
     2.4971   2.5238   2.5644   2.5845   2.6638   2.7269   2.7367   2.7956
     2.8491   2.9281   3.0118   3.0261   3.0414   3.1565   3.2247   3.2475
     3.2905   3.4426   3.4624   3.5345   3.5586   3.6148   3.6754   3.7592
     3.7862   3.8200   3.8911   3.9379   3.9720   4.0106   4.0715   4.0923
     4.1638   4.1961   4.2143   4.2572   4.3036   4.3130   4.3700   4.4709
     4.5239   4.5345   4.6150   4.6504   4.6813   4.7476   4.7611   4.7905
     4.8371   4.8993   4.9016   4.9369   4.9939   5.0044   5.0147   5.0540
     5.0664   5.1437

          k = 0.0625 0.5413-0.2308 ( 96066 PWs)   bands (ev):

  -114.1684-114.1684-114.1684-114.1683 -71.6407 -71.6407 -71.6407 -71.6407
   -71.6406 -71.6406 -71.6405 -71.6405 -71.4682 -71.4682 -71.4682 -71.4681
   -18.6499 -18.6337 -18.5668 -18.5498 -17.7397 -17.7386 -17.7366 -17.7350
   -17.3193 -17.3134 -17.3088 -17.3050 -17.1846 -17.1571 -17.0545 -17.0394
   -17.0295 -17.0293 -17.0283 -17.0282 -17.0267 -17.0254 -17.0197 -17.0179
   -16.9890 -16.9839 -16.9220 -16.8865 -16.1763 -16.1352 -15.9581 -15.9102
   -15.8977 -15.8643 -15.7183 -15.7041 -15.4740 -15.4390 -15.2799 -15.2330
   -15.1910 -15.1669 -15.0957 -15.0852 -12.6963 -12.6332 -12.3740 -12.3077
   -10.9920 -10.9394 -10.6793 -10.6019  -9.4700  -9.4410  -9.2487  -9.1715
    -8.7608  -8.7601  -8.7416  -8.7156  -8.3781  -8.3662  -8.3511  -8.3282
    -8.3061  -8.2549  -8.1569  -8.1554  -7.6539  -7.5895  -7.5455  -7.4529
    -7.0716  -7.0588  -6.9340  -6.9247  -6.3254  -6.2982  -6.1893  -6.1770
    -6.1667  -6.1140  -6.0336  -6.0030  -5.8372  -5.8330  -5.7783  -5.7633
    -5.6929  -5.6710  -5.6625  -5.6550  -5.5214  -5.5172  -5.4047  -5.4028
    -5.3509  -5.3031  -5.2668  -5.2648  -4.9847  -4.9770  -4.9438  -4.9052
    -4.6906  -4.6594  -4.6505  -4.6501  -4.5522  -4.5465  -4.5078  -4.5070
    -4.3235  -4.3180  -4.2794  -4.2562  -3.9880  -3.9756  -3.9732  -3.9717
    -3.9069  -3.8719  -3.8613  -3.8598  -3.8448  -3.8135  -3.8092  -3.7418
    -3.6647  -3.6443  -3.6423  -3.5886  -3.5031  -3.4884  -3.4357  -3.4266
    -3.3178  -3.2339  -3.2181  -3.1214  -0.8926  -0.8412  -0.7801  -0.7419
    -0.1991  -0.1166   0.0197   0.0473   0.0785   0.2026   0.3529   0.4089
     0.4906   0.4912   0.4944   0.5156   0.5618   0.6216   0.7591   0.8186
     0.8315   0.8799   0.9975   1.0505   1.2963   1.4123   1.5613   1.5970
     1.7458   1.7635   1.7961   1.8136   2.0667   2.0781   2.1234   2.1311
     2.5421   2.5621   2.5773   2.6536   2.6843   2.7334   2.8014   2.8368
     2.8396   2.9043   3.0180   3.0350   3.0587   3.0800   3.1653   3.2443
     3.2659   3.4249   3.4285   3.4743   3.5395   3.6603   3.6996   3.7082
     3.7369   3.8044   3.8138   3.9256   3.9410   4.0268   4.1757   4.1927
     4.2282   4.2288   4.2793   4.3411   4.3841   4.3983   4.3987   4.4231
     4.4387   4.5080   4.6189   4.6832   4.6963   4.7475   4.8005   4.8214
     4.8527   4.9149   4.9842   4.9926   5.0076   5.0483   5.0663   5.0680
     5.1593   5.1673

          k = 0.0625-0.4691-0.2308 ( 96096 PWs)   bands (ev):

  -114.1684-114.1684-114.1684-114.1683 -71.6407 -71.6407 -71.6407 -71.6407
   -71.6406 -71.6406 -71.6405 -71.6405 -71.4682 -71.4682 -71.4682 -71.4681
   -18.6655 -18.6176 -18.5664 -18.5500 -17.7418 -17.7405 -17.7376 -17.7307
   -17.3162 -17.3125 -17.3111 -17.3000 -17.2119 -17.1323 -17.0549 -17.0406
   -17.0297 -17.0292 -17.0286 -17.0285 -17.0279 -17.0238 -17.0195 -17.0177
   -16.9926 -16.9769 -16.9221 -16.8889 -16.1814 -16.1465 -16.0147 -15.9024
   -15.8510 -15.8409 -15.7369 -15.6857 -15.4749 -15.4466 -15.3213 -15.1919
   -15.1885 -15.1632 -15.1091 -15.0718 -12.7599 -12.5727 -12.3746 -12.3108
   -11.0428 -10.8871 -10.6817 -10.6076  -9.4980  -9.4134  -9.2554  -9.1884
    -8.7644  -8.7571  -8.7213  -8.6796  -8.4177  -8.4025  -8.3472  -8.3090
    -8.2580  -8.2371  -8.1434  -8.1419  -7.7175  -7.5413  -7.5301  -7.4465
    -7.0906  -7.0703  -6.9552  -6.9468  -6.3384  -6.2982  -6.2264  -6.2010
    -6.1593  -6.0825  -6.0744  -5.9544  -5.8595  -5.8185  -5.7902  -5.7651
    -5.6813  -5.6725  -5.6688  -5.6592  -5.5217  -5.4735  -5.4350  -5.3949
    -5.3793  -5.2722  -5.2635  -5.2322  -4.9919  -4.9756  -4.9619  -4.8915
    -4.7038  -4.6973  -4.6464  -4.6282  -4.5593  -4.5560  -4.5356  -4.5119
    -4.3038  -4.2743  -4.2643  -4.2551  -4.0108  -4.0075  -3.9602  -3.9561
    -3.9199  -3.8999  -3.8611  -3.8431  -3.8220  -3.8052  -3.7983  -3.7649
    -3.6817  -3.6561  -3.6236  -3.6151  -3.4987  -3.4709  -3.4085  -3.4030
    -3.3317  -3.2255  -3.1915  -3.1221  -0.8899  -0.8330  -0.8317  -0.7212
    -0.1849  -0.0936  -0.0069   0.0542   0.0766   0.2326   0.3221   0.4179
     0.4385   0.4960   0.5017   0.5369   0.5786   0.5825   0.7033   0.7967
     0.8727   0.9093   1.0180   1.0362   1.3108   1.3908   1.5116   1.6357
     1.7530   1.7692   1.7708   1.8489   2.0675   2.0881   2.1036   2.2059
     2.5207   2.5762   2.5776   2.5916   2.6283   2.7759   2.7913   2.7967
     2.8924   2.9211   2.9668   2.9832   3.0954   3.0989   3.1586   3.3020
     3.3208   3.3962   3.4128   3.5316   3.5742   3.6262   3.6669   3.7054
     3.7510   3.7985   3.9019   3.9294   3.9333   3.9930   4.0990   4.1710
     4.1783   4.2161   4.3141   4.3154   4.3346   4.3471   4.3851   4.4231
     4.4891   4.5157   4.6556   4.6883   4.7559   4.7676   4.7721   4.8331
     4.8372   4.8560   4.8958   4.9417   5.0042   5.0287   5.0299   5.0521
     5.1557   5.1972

          k = 0.0625-0.3248-0.2308 ( 96052 PWs)   bands (ev):

  -114.1684-114.1684-114.1684-114.1683 -71.6407 -71.6407 -71.6407 -71.6407
   -71.6406 -71.6406 -71.6405 -71.6405 -71.4682 -71.4682 -71.4682 -71.4681
   -18.6928 -18.5880 -18.5644 -18.5511 -17.7461 -17.7438 -17.7417 -17.7214
   -17.3176 -17.3034 -17.2990 -17.2900 -17.2630 -17.0926 -17.0584 -17.0454
   -17.0302 -17.0296 -17.0295 -17.0294 -17.0293 -17.0206 -17.0185 -17.0170
   -16.9972 -16.9564 -16.9233 -16.8977 -16.2060 -16.1789 -16.1200 -15.8607
   -15.8169 -15.7631 -15.7368 -15.6553 -15.4864 -15.4649 -15.4042 -15.1748
   -15.1545 -15.1291 -15.1145 -15.0502 -12.8783 -12.4677 -12.3763 -12.3248
   -11.1316 -10.7916 -10.6916 -10.6323  -9.5470  -9.3665  -9.2884  -9.2412
    -8.7269  -8.7223  -8.6573  -8.6305  -8.4692  -8.4222  -8.3359  -8.3223
    -8.1652  -8.1411  -8.0962  -8.0864  -7.8316  -7.5181  -7.4378  -7.4320
    -7.1484  -7.1107  -7.0617  -7.0533  -6.3730  -6.3423  -6.3403  -6.1953
    -6.1490  -6.1333  -6.0522  -5.8743  -5.8691  -5.8308  -5.8244  -5.7816
    -5.7026  -5.6527  -5.6524  -5.6501  -5.4759  -5.4529  -5.4263  -5.4123
    -5.4086  -5.2069  -5.2050  -5.1727  -5.0028  -5.0009  -4.9922  -4.8526
    -4.7322  -4.7231  -4.6669  -4.6626  -4.5943  -4.5864  -4.5751  -4.5518
    -4.2679  -4.2505  -4.2501  -4.1149  -4.0646  -4.0590  -4.0140  -3.9579
    -3.9223  -3.8663  -3.8462  -3.8325  -3.8198  -3.8071  -3.7877  -3.7723
    -3.6830  -3.6712  -3.6669  -3.6433  -3.4578  -3.3960  -3.3806  -3.3589
    -3.2538  -3.2304  -3.1404  -3.0779  -0.9808  -0.8658  -0.8060  -0.7223
    -0.1144  -0.0948  -0.0250   0.0648   0.1144   0.2408   0.2921   0.3349
     0.3859   0.4819   0.5015   0.5032   0.5596   0.5769   0.6026   0.8839
     0.8846   0.9225   1.0347   1.0734   1.3240   1.3617   1.4326   1.6881
     1.7775   1.8017   1.8121   1.8523   2.0361   2.1578   2.1990   2.2543
     2.4802   2.4981   2.5507   2.5726   2.6140   2.6759   2.7595   2.7621
     2.8754   2.8954   2.9945   3.0118   3.0422   3.1260   3.2353   3.3344
     3.3791   3.4415   3.5400   3.5489   3.5531   3.6246   3.6926   3.7574
     3.7956   3.8422   3.8528   3.9270   3.9954   4.0131   4.0316   4.0725
     4.0893   4.1467   4.1847   4.1943   4.2461   4.2695   4.4083   4.4272
     4.4978   4.5549   4.5829   4.6171   4.6561   4.6749   4.7504   4.7653
     4.8268   4.8594   4.9217   4.9631   4.9861   4.9938   5.0458   5.0984
     5.1033   5.1497

          k = 0.0625-0.1804-0.2308 ( 96040 PWs)   bands (ev):

  -114.1684-114.1684-114.1684-114.1683 -71.6407 -71.6407 -71.6407 -71.6407
   -71.6406 -71.6406 -71.6405 -71.6405 -71.4682 -71.4682 -71.4682 -71.4681
   -18.7119 -18.5662 -18.5612 -18.5531 -17.7484 -17.7477 -17.7464 -17.7128
   -17.3205 -17.3009 -17.2873 -17.2839 -17.2811 -17.0702 -17.0629 -17.0535
   -17.0306 -17.0304 -17.0303 -17.0300 -17.0299 -17.0179 -17.0174 -17.0165
   -16.9994 -16.9324 -16.9239 -16.9090 -16.2282 -16.2110 -16.1978 -15.8132
   -15.7879 -15.7788 -15.6613 -15.6327 -15.4990 -15.4841 -15.4689 -15.1589
   -15.1476 -15.1428 -15.0576 -15.0347 -12.9680 -12.3945 -12.3753 -12.3440
   -11.1937 -10.7218 -10.7000 -10.6640  -9.5807  -9.3367  -9.3196  -9.2928
    -8.6698  -8.6673  -8.6227  -8.5939  -8.5234  -8.3610  -8.3260  -8.3163
    -8.0787  -8.0616  -8.0549  -8.0138  -7.9130  -7.4690  -7.4065  -7.4027
    -7.2138  -7.1942  -7.1846  -7.1774  -6.4155  -6.4130  -6.4035  -6.1753
    -6.1578  -6.1512  -6.0809  -5.8639  -5.8505  -5.8480  -5.8211  -5.7781
    -5.7363  -5.6427  -5.6409  -5.6393  -5.4433  -5.4260  -5.4162  -5.4154
    -5.3938  -5.1586  -5.1520  -5.1323  -5.0049  -5.0030  -4.9980  -4.8158
    -4.7357  -4.7356  -4.7176  -4.6916  -4.6398  -4.6297  -4.6209  -4.6031
    -4.2715  -4.2606  -4.2584  -4.1010  -4.0968  -4.0797  -4.0192  -3.9500
    -3.8981  -3.8728  -3.8464  -3.8371  -3.8111  -3.7924  -3.7837  -3.7300
    -3.6967  -3.6913  -3.6701  -3.5998  -3.4092  -3.3807  -3.3777  -3.2591
    -3.2265  -3.1697  -3.0837  -3.0002  -1.1460  -0.8288  -0.7858  -0.7630
    -0.2013  -0.0268   0.0420   0.0600   0.1234   0.1704   0.1830   0.3230
     0.3715   0.3943   0.5235   0.5531   0.5636   0.5680   0.5730   0.8626
     0.9684   0.9905   1.0313   1.0951   1.3298   1.3537   1.3763   1.7390
     1.8235   1.8526   1.8711   1.8854   1.9855   2.2033   2.2301   2.2372
     2.4604   2.5321   2.5356   2.5527   2.5991   2.6353   2.7225   2.7587
     2.7950   2.8480   2.9269   3.0299   3.0751   3.0765   3.2793   3.3502
     3.4569   3.4953   3.5663   3.6156   3.6375   3.7050   3.7442   3.8083
     3.8109   3.8192   3.8304   3.8873   3.8938   3.9359   4.0113   4.0339
     4.1079   4.1138   4.1602   4.1646   4.1899   4.2187   4.3094   4.3426
     4.4068   4.4444   4.5152   4.5529   4.5822   4.6464   4.6471   4.7745
     4.7804   4.8443   4.8903   4.9053   4.9715   4.9842   5.0564   5.0712
     5.1122   5.1413

          k = 0.0625-0.0361-0.2308 ( 95996 PWs)   bands (ev):

  -114.1684-114.1684-114.1684-114.1683 -71.6407 -71.6407 -71.6407 -71.6407
   -71.6406 -71.6406 -71.6405 -71.6405 -71.4682 -71.4682 -71.4682 -71.4681
   -18.7206 -18.5577 -18.5561 -18.5559 -17.7495 -17.7493 -17.7492 -17.7083
   -17.3216 -17.3187 -17.2766 -17.2765 -17.2757 -17.0636 -17.0615 -17.0613
   -17.0308 -17.0307 -17.0305 -17.0304 -17.0304 -17.0167 -17.0165 -17.0165
   -17.0003 -16.9215 -16.9184 -16.9183 -16.2348 -16.2345 -16.2307 -15.7838
   -15.7831 -15.7790 -15.6264 -15.6223 -15.5019 -15.5012 -15.4977 -15.1486
   -15.1485 -15.1465 -15.0310 -15.0276 -13.0105 -12.3681 -12.3616 -12.3616
   -11.2216 -10.6970 -10.6896 -10.6895  -9.5956  -9.3297  -9.3242  -9.3240
    -8.6349  -8.6302  -8.6270  -8.5596  -8.5490  -8.3176  -8.3139  -8.3112
    -8.0327  -8.0319  -8.0291  -7.9659  -7.9500  -7.4063  -7.4025  -7.3905
    -7.2761  -7.2555  -7.2553  -7.2481  -6.4401  -6.4389  -6.4384  -6.1642
    -6.1616  -6.1603  -6.1056  -5.8591  -5.8576  -5.8566  -5.8022  -5.7661
    -5.7584  -5.6384  -5.6383  -5.6378  -5.4293  -5.4264  -5.4251  -5.3802
    -5.3767  -5.1364  -5.1344  -5.1316  -4.9890  -4.9872  -4.9871  -4.7719
    -4.7420  -4.7293  -4.7222  -4.7192  -4.6929  -4.6576  -4.6562  -4.6489
    -4.2787  -4.2769  -4.2764  -4.1145  -4.1118  -4.1117  -3.9943  -3.9386
    -3.9301  -3.8528  -3.8494  -3.8480  -3.7858  -3.7842  -3.7822  -3.7217
    -3.7148  -3.7132  -3.5819  -3.5696  -3.3811  -3.3800  -3.3764  -3.2104
    -3.1984  -3.1982  -2.9806  -2.9668  -1.2469  -0.7968  -0.7965  -0.7872
    -0.2687   0.0449   0.0487   0.0679   0.1043   0.1058   0.1060   0.3544
     0.3547   0.3629   0.5648   0.5648   0.5663   0.5663   0.5738   0.8598
     1.0197   1.0237   1.0292   1.0999   1.3467   1.3473   1.3537   1.7834
     1.8012   1.9259   1.9308   1.9349   1.9350   2.1910   2.1922   2.1982
     2.4475   2.5568   2.5675   2.5804   2.5913   2.5980   2.7515   2.7540
     2.7612   2.8267   2.8962   3.0148   3.0187   3.0244   3.3760   3.4024
     3.4076   3.4753   3.6471   3.6689   3.6710   3.6807   3.7356   3.7531
     3.7547   3.8700   3.8964   3.9332   3.9401   3.9446   4.0307   4.0349
     4.0601   4.0702   4.1292   4.1395   4.1405   4.1488   4.2895   4.2939
     4.3585   4.4496   4.4593   4.4721   4.5972   4.5982   4.6402   4.6879
     4.7294   4.7322   4.9617   4.9665   4.9686   4.9802   5.0115   5.0345
     5.0466   5.1322

          k = 0.1875 0.3248-0.2308 ( 96062 PWs)   bands (ev):

  -114.1684-114.1684-114.1684-114.1683 -71.6407 -71.6407 -71.6407 -71.6407
   -71.6406 -71.6406 -71.6405 -71.6405 -71.4682 -71.4682 -71.4682 -71.4681
   -18.6850 -18.5839 -18.5838 -18.5448 -17.7447 -17.7444 -17.7387 -17.7243
   -17.3170 -17.3111 -17.2978 -17.2967 -17.2474 -17.0826 -17.0813 -17.0381
   -17.0300 -17.0299 -17.0291 -17.0291 -17.0291 -17.0206 -17.0205 -17.0166
   -16.9960 -16.9508 -16.9504 -16.8802 -16.2128 -16.1232 -16.1186 -15.8905
   -15.7895 -15.7804 -15.7643 -15.6669 -15.4956 -15.4168 -15.4083 -15.1879
   -15.1380 -15.1374 -15.1345 -15.0561 -12.8433 -12.4481 -12.4480 -12.2965
   -11.1059 -10.7677 -10.7674 -10.5952  -9.5326  -9.3426  -9.3402  -9.1950
    -8.7581  -8.7326  -8.6805  -8.6078  -8.4638  -8.4457  -8.3447  -8.3103
    -8.2072  -8.1361  -8.1340  -8.1135  -7.7947  -7.5759  -7.4326  -7.4170
    -7.1021  -7.0942  -7.0387  -7.0221  -6.3406  -6.3359  -6.3072  -6.1974
    -6.1580  -6.1187  -6.0519  -5.8990  -5.8638  -5.8305  -5.8130  -5.7805
    -5.6888  -5.6694  -5.6499  -5.6379  -5.4782  -5.4690  -5.4357  -5.4239
    -5.4024  -5.2402  -5.2196  -5.1945  -4.9962  -4.9900  -4.9867  -4.8520
    -4.7303  -4.7207  -4.6591  -4.6299  -4.5973  -4.5611  -4.5597  -4.5499
    -4.2799  -4.2501  -4.2427  -4.1611  -4.0622  -4.0377  -3.9907  -3.9563
    -3.9320  -3.8985  -3.8586  -3.8413  -3.8404  -3.7856  -3.7639  -3.7438
    -3.7184  -3.6842  -3.6557  -3.6072  -3.4745  -3.3966  -3.3953  -3.3294
    -3.3236  -3.3080  -3.0947  -3.0944  -0.9332  -0.8978  -0.7556  -0.7520
    -0.1725  -0.0690   0.0106   0.0370   0.0648   0.2775   0.3236   0.3526
     0.4559   0.4569   0.4915   0.5387   0.5489   0.5709   0.5893   0.7988
     0.8913   0.9766   1.0214   1.0666   1.2834   1.4333   1.4503   1.6877
     1.7657   1.7832   1.7892   1.8443   2.0518   2.1531   2.1950   2.2080
     2.4891   2.5290   2.5362   2.5686   2.6686   2.7159   2.7402   2.7996
     2.8482   2.9150   3.0220   3.0485   3.0533   3.0721   3.2171   3.2469
     3.3801   3.4252   3.5159   3.5831   3.5845   3.5849   3.6008   3.7640
     3.7911   3.8090   3.8410   3.8751   4.0311   4.0314   4.0642   4.0683
     4.1666   4.2040   4.2436   4.2752   4.2967   4.3085   4.3199   4.3789
     4.4620   4.5450   4.6176   4.6184   4.6589   4.6856   4.7552   4.8361
     4.8374   4.8987   4.9389   4.9751   5.0001   5.0286   5.0415   5.0452
     5.0899   5.1004

          k = 0.1875 0.4691-0.2308 ( 96084 PWs)   bands (ev):

  -114.1684-114.1684-114.1684-114.1683 -71.6407 -71.6407 -71.6407 -71.6407
   -71.6406 -71.6406 -71.6405 -71.6405 -71.4682 -71.4682 -71.4682 -71.4681
   -18.6586 -18.6123 -18.5888 -18.5405 -17.7418 -17.7413 -17.7343 -17.7323
   -17.3229 -17.3131 -17.3076 -17.3050 -17.1978 -17.1191 -17.0821 -17.0326
   -17.0295 -17.0291 -17.0290 -17.0286 -17.0274 -17.0237 -17.0216 -17.0168
   -16.9911 -16.9735 -16.9538 -16.8633 -16.1987 -16.0816 -16.0241 -15.9375
   -15.8592 -15.8099 -15.7517 -15.7017 -15.4912 -15.3894 -15.3389 -15.2101
   -15.2057 -15.1400 -15.1126 -15.0779 -12.7304 -12.5502 -12.4593 -12.2715
   -11.0186 -10.8635 -10.7725 -10.5577  -9.4831  -9.3931  -9.3283  -9.1236
    -8.7829  -8.7745  -8.7371  -8.6321  -8.4717  -8.3814  -8.3235  -8.3132
    -8.3129  -8.2070  -8.1769  -8.1707  -7.6800  -7.6231  -7.4969  -7.4359
    -7.0691  -7.0070  -6.9805  -6.9365  -6.3028  -6.2543  -6.2408  -6.2011
    -6.1551  -6.0903  -6.0765  -5.9835  -5.8474  -5.8180  -5.7786  -5.7774
    -5.7083  -5.6429  -5.6427  -5.6388  -5.5146  -5.5090  -5.4198  -5.4081
    -5.4035  -5.2825  -5.2783  -5.2749  -4.9894  -4.9589  -4.9531  -4.8696
    -4.7100  -4.6907  -4.6500  -4.6063  -4.5570  -4.5346  -4.5266  -4.5239
    -4.2990  -4.2900  -4.2855  -4.2575  -4.0309  -3.9952  -3.9763  -3.9665
    -3.9332  -3.8861  -3.8760  -3.8438  -3.8307  -3.8080  -3.7613  -3.6983
    -3.6967  -3.6749  -3.6657  -3.5840  -3.4909  -3.4799  -3.4263  -3.4052
    -3.3603  -3.2898  -3.1772  -3.0561  -0.9235  -0.8186  -0.7837  -0.7409
    -0.2556  -0.0361  -0.0099   0.0028   0.0386   0.2964   0.3428   0.4481
     0.4574   0.4914   0.4952   0.5084   0.5805   0.6033   0.6907   0.7109
     0.8465   0.9879   1.0001   1.0638   1.2310   1.5209   1.5613   1.6650
     1.7362   1.7667   1.7676   1.8157   2.0926   2.0977   2.1134   2.1271
     2.5326   2.5346   2.5842   2.6530   2.6829   2.7857   2.7981   2.8232
     2.8436   2.9836   2.9896   2.9966   3.0295   3.1242   3.1907   3.2251
     3.2624   3.3758   3.4041   3.4235   3.5385   3.6004   3.6741   3.7416
     3.7706   3.8453   3.8494   3.9351   3.9398   4.0839   4.0864   4.1295
     4.1766   4.2634   4.2713   4.2748   4.3270   4.4116   4.4468   4.4756
     4.5151   4.5175   4.5805   4.5883   4.6968   4.7391   4.7525   4.8085
     4.8290   4.8753   4.9511   5.0068   5.0353   5.0418   5.0813   5.1272
     5.1538   5.2156

          k = 0.1875 0.6134-0.2308 ( 96082 PWs)   bands (ev):

  -114.1684-114.1684-114.1684-114.1683 -71.6407 -71.6407 -71.6407 -71.6407
   -71.6406 -71.6406 -71.6405 -71.6405 -71.4682 -71.4682 -71.4682 -71.4681
   -18.6435 -18.6279 -18.5899 -18.5397 -17.7410 -17.7390 -17.7359 -17.7332
   -17.3255 -17.3110 -17.3106 -17.3075 -17.1704 -17.1445 -17.0813 -17.0320
   -17.0293 -17.0291 -17.0285 -17.0284 -17.0264 -17.0250 -17.0220 -17.0168
   -16.9870 -16.9814 -16.9543 -16.8596 -16.1932 -16.0748 -15.9665 -15.9504
   -15.9145 -15.8115 -15.7403 -15.7174 -15.4889 -15.3891 -15.2912 -15.2539
   -15.2102 -15.1389 -15.1035 -15.0883 -12.6695 -12.6087 -12.4615 -12.2661
   -10.9682 -10.9160 -10.7729 -10.5494  -9.4538  -9.4239  -9.3229  -9.1055
    -8.7957  -8.7682  -8.7632  -8.6281  -8.4815  -8.3455  -8.3436  -8.3398
    -8.2806  -8.2464  -8.1877  -8.1869  -7.6319  -7.6169  -7.5566  -7.4309
    -7.0588  -7.0236  -6.9308  -6.9215  -6.2990  -6.2400  -6.2030  -6.1835
    -6.1355  -6.1318  -6.0730  -6.0160  -5.8518  -5.8024  -5.7872  -5.7537
    -5.7124  -5.6592  -5.6415  -5.6314  -5.5239  -5.4915  -5.4562  -5.3862
    -5.3635  -5.3365  -5.3040  -5.2765  -4.9896  -4.9503  -4.9112  -4.9040
    -4.7100  -4.6867  -4.6422  -4.5991  -4.5450  -4.5346  -4.5176  -4.5046
    -4.3227  -4.3178  -4.3034  -4.2576  -4.0029  -3.9945  -3.9908  -3.9610
    -3.9048  -3.8976  -3.8823  -3.8382  -3.8210  -3.8161  -3.7974  -3.7143
    -3.6545  -3.6468  -3.6275  -3.6142  -3.5394  -3.5094  -3.4528  -3.3986
    -3.3044  -3.2630  -3.2517  -3.0468  -0.9289  -0.7894  -0.7785  -0.7548
    -0.2765  -0.0402  -0.0171   0.0150   0.0174   0.2965   0.3597   0.4485
     0.4541   0.5028   0.5066   0.5479   0.5822   0.5922   0.6668   0.7266
     0.8609   0.9608   1.0087   1.0547   1.2181   1.5387   1.6082   1.6543
     1.7368   1.7590   1.7696   1.8066   2.0723   2.0771   2.0774   2.1537
     2.5372   2.5650   2.5914   2.6433   2.7016   2.7653   2.8501   2.8765
     2.8814   2.8916   2.9273   3.0304   3.0417   3.1143   3.1925   3.2223
     3.2639   3.3785   3.3799   3.3997   3.5292   3.5949   3.6895   3.7381
     3.7794   3.7900   3.8451   3.8919   3.9856   4.1013   4.1206   4.1245
     4.1907   4.2113   4.2568   4.2829   4.3749   4.3827   4.4840   4.4905
     4.4979   4.5403   4.6064   4.6628   4.6736   4.7405   4.7861   4.7962
     4.8317   4.8444   4.9281   4.9477   5.0727   5.0850   5.0861   5.1191
     5.1299   5.2385

          k = 0.1875-0.3969-0.2308 ( 96040 PWs)   bands (ev):

  -114.1684-114.1684-114.1684-114.1683 -71.6407 -71.6407 -71.6407 -71.6407
   -71.6406 -71.6406 -71.6405 -71.6405 -71.4682 -71.4682 -71.4682 -71.4681
   -18.6726 -18.5975 -18.5868 -18.5423 -17.7433 -17.7429 -17.7362 -17.7284
   -17.3178 -17.3154 -17.3038 -17.3004 -17.2235 -17.0992 -17.0813 -17.0347
   -17.0297 -17.0296 -17.0290 -17.0288 -17.0284 -17.0220 -17.0212 -17.0166
   -16.9940 -16.9633 -16.9523 -16.8705 -16.2051 -16.1026 -16.0716 -15.9178
   -15.8099 -15.7916 -15.7754 -15.6826 -15.4928 -15.4050 -15.3715 -15.1982
   -15.1730 -15.1356 -15.1277 -15.0656 -12.7892 -12.4960 -12.4549 -12.2819
   -11.0649 -10.8136 -10.7707 -10.5735  -9.5096  -9.3666  -9.3328  -9.1575
    -8.7784  -8.7561  -8.7116  -8.5891  -8.5082  -8.4118  -8.3392  -8.3023
    -8.2582  -8.1752  -8.1563  -8.1447  -7.7402  -7.6039  -7.4590  -7.4226
    -7.0797  -7.0681  -6.9877  -6.9745  -6.3216  -6.2917  -6.2702  -6.2074
    -6.1382  -6.1196  -6.0628  -5.9377  -5.8644  -5.8135  -5.8033  -5.7700
    -5.6826  -5.6775  -5.6484  -5.6409  -5.4898  -5.4798  -5.4276  -5.4235
    -5.4111  -5.2687  -5.2543  -5.2259  -4.9941  -4.9718  -4.9665  -4.8650
    -4.7213  -4.7171  -4.6395  -4.6130  -4.5749  -4.5497  -4.5469  -4.5313
    -4.2888  -4.2668  -4.2474  -4.2289  -4.0461  -4.0188  -3.9640  -3.9554
    -3.9407  -3.9071  -3.8769  -3.8408  -3.8350  -3.7914  -3.7555  -3.7338
    -3.6970  -3.6947  -3.6494  -3.5995  -3.4815  -3.4377  -3.3988  -3.3935
    -3.3275  -3.3148  -3.1400  -3.0707  -0.9148  -0.8704  -0.7665  -0.7442
    -0.2206  -0.0343   0.0063   0.0177   0.0253   0.2776   0.3708   0.3814
     0.4674   0.4963   0.5049   0.5292   0.5635   0.5814   0.5945   0.7430
     0.9058   0.9641   1.0319   1.0421   1.2595   1.4687   1.5029   1.6782
     1.7443   1.7664   1.7790   1.8427   2.0593   2.1196   2.1462   2.2000
     2.5091   2.5376   2.5627   2.6044   2.6437   2.7744   2.7778   2.8131
     2.8711   2.9473   2.9757   3.0068   3.0647   3.0688   3.2240   3.2339
     3.3631   3.3643   3.4816   3.4872   3.5573   3.5981   3.6280   3.7532
     3.7886   3.8322   3.8403   3.8614   4.0105   4.0594   4.0793   4.0851
     4.1550   4.2354   4.2622   4.2737   4.3506   4.3528   4.3923   4.4588
     4.5012   4.5064   4.5493   4.6205   4.6589   4.7330   4.8175   4.8363
     4.8793   4.8846   4.8948   4.9256   5.0256   5.0374   5.0498   5.0758
     5.1858   5.2115

          k = 0.1875-0.2526-0.2308 ( 96066 PWs)   bands (ev):

  -114.1684-114.1684-114.1684-114.1683 -71.6407 -71.6407 -71.6407 -71.6407
   -71.6406 -71.6406 -71.6405 -71.6405 -71.4682 -71.4682 -71.4682 -71.4681
   -18.6954 -18.5802 -18.5722 -18.5481 -17.7461 -17.7455 -17.7415 -17.7203
   -17.3183 -17.3034 -17.2932 -17.2913 -17.2679 -17.0806 -17.0703 -17.0428
   -17.0302 -17.0300 -17.0296 -17.0294 -17.0293 -17.0199 -17.0190 -17.0166
   -16.9975 -16.9476 -16.9371 -16.8914 -16.2184 -16.1595 -16.1445 -15.8609
   -15.8004 -15.7722 -15.7253 -15.6535 -15.4973 -15.4411 -15.4298 -15.1766
   -15.1464 -15.1344 -15.1067 -15.0481 -12.8903 -12.4386 -12.4077 -12.3144
   -11.1401 -10.7617 -10.7283 -10.6207  -9.5516  -9.3462  -9.3230  -9.2326
    -8.7343  -8.7002  -8.6499  -8.6292  -8.4758  -8.4121  -8.3510  -8.3146
    -8.1590  -8.1175  -8.0978  -8.0806  -7.8411  -7.5388  -7.4262  -7.4100
    -7.1313  -7.1205  -7.0894  -7.0765  -6.3682  -6.3626  -6.3461  -6.1847
    -6.1704  -6.1235  -6.0542  -5.8663  -5.8599  -5.8460  -5.8242  -5.7857
    -5.7029  -5.6596  -5.6480  -5.6366  -5.4661  -5.4558  -5.4331  -5.4234
    -5.3966  -5.2133  -5.1863  -5.1680  -5.0064  -4.9985  -4.9973  -4.8419
    -4.7389  -4.7176  -4.6805  -4.6560  -4.6152  -4.5778  -4.5703  -4.5701
    -4.2723  -4.2500  -4.2411  -4.0998  -4.0766  -4.0542  -4.0268  -3.9564
    -3.9135  -3.8783  -3.8554  -3.8423  -3.8375  -3.7831  -3.7627  -3.7572
    -3.7290  -3.6664  -3.6545  -3.6375  -3.4491  -3.3996  -3.3788  -3.3237
    -3.2712  -3.2436  -3.1239  -3.0586  -1.0009  -0.8740  -0.7750  -0.7415
    -0.1181  -0.1085   0.0007   0.0632   0.1053   0.2555   0.2904   0.3135
     0.4029   0.4423   0.4919   0.5298   0.5479   0.5872   0.5893   0.8558
     0.8761   0.9944   1.0097   1.0824   1.3023   1.4049   1.4089   1.6994
     1.7990   1.8012   1.8093   1.8420   2.0363   2.1861   2.2083   2.2333
     2.4775   2.5120   2.5353   2.5451   2.6668   2.6781   2.7066   2.7998
     2.8182   2.8889   2.9846   3.0650   3.0711   3.1187   3.2129   3.2531
     3.4133   3.5084   3.5247   3.5428   3.6017   3.6221   3.6932   3.7618
     3.7946   3.8085   3.8332   3.8785   3.9708   4.0059   4.0701   4.0789
     4.1647   4.1869   4.2018   4.2042   4.2460   4.2808   4.3225   4.3457
     4.3942   4.5336   4.5937   4.6170   4.6827   4.7233   4.7234   4.8150
     4.8335   4.8764   4.8802   4.9030   4.9878   4.9900   5.0548   5.0762
     5.1025   5.1496

          k = 0.1875-0.1083-0.2308 ( 96046 PWs)   bands (ev):

  -114.1684-114.1684-114.1684-114.1683 -71.6407 -71.6407 -71.6407 -71.6407
   -71.6406 -71.6406 -71.6405 -71.6405 -71.4682 -71.4682 -71.4682 -71.4681
   -18.7091 -18.5711 -18.5565 -18.5564 -17.7483 -17.7463 -17.7462 -17.7142
   -17.3200 -17.2953 -17.2889 -17.2883 -17.2820 -17.0754 -17.0563 -17.0557
   -17.0305 -17.0303 -17.0301 -17.0300 -17.0298 -17.0185 -17.0170 -17.0170
   -16.9991 -16.9389 -16.9145 -16.9140 -16.2181 -16.2158 -16.1829 -15.8122
   -15.8071 -15.7708 -15.6726 -15.6360 -15.4924 -15.4879 -15.4565 -15.1570
   -15.1556 -15.1383 -15.0659 -15.0372 -12.9544 -12.4117 -12.3550 -12.3549
   -11.1846 -10.7393 -10.6752 -10.6750  -9.5758  -9.3457  -9.2981  -9.2964
    -8.6872  -8.6598  -8.6354  -8.6039  -8.5155  -8.3629  -8.3340  -8.3195
    -8.0876  -8.0839  -8.0563  -8.0265  -7.9014  -7.4559  -7.4464  -7.3980
    -7.1955  -7.1709  -7.1657  -7.1639  -6.4038  -6.4028  -6.3985  -6.1781
    -6.1600  -6.1453  -6.0743  -5.8636  -5.8511  -5.8429  -5.8279  -5.7810
    -5.7297  -5.6449  -5.6429  -5.6395  -5.4429  -5.4292  -5.4277  -5.4144
    -5.3960  -5.1675  -5.1531  -5.1398  -5.0115  -5.0010  -4.9990  -4.8234
    -4.7437  -4.7161  -4.7099  -4.7000  -4.6269  -4.6177  -4.6174  -4.5920
    -4.2676  -4.2619  -4.2521  -4.0995  -4.0824  -4.0747  -4.0301  -3.9524
    -3.8884  -3.8850  -3.8415  -3.8405  -3.8049  -3.7960  -3.7939  -3.7069
    -3.7032  -3.6926  -3.6889  -3.6106  -3.4086  -3.3963  -3.3725  -3.2886
    -3.1919  -3.1894  -3.1123  -3.0123  -1.1171  -0.8176  -0.8148  -0.7459
    -0.1820  -0.0216  -0.0066   0.0794   0.1449   0.1575   0.2171   0.3335
     0.3454   0.4143   0.5235   0.5240   0.5627   0.5754   0.5872   0.8637
     0.9549   0.9815   1.0286   1.0936   1.3351   1.3438   1.3868   1.7283
     1.8299   1.8301   1.8669   1.8687   1.9969   2.2018   2.2236   2.2502
     2.4640   2.5039   2.5339   2.5901   2.6067   2.6086   2.7392   2.7454
     2.8106   2.8550   2.9368   3.0299   3.0735   3.1074   3.2441   3.3859
     3.4192   3.5021   3.5106   3.6369   3.6692   3.6740   3.7183   3.7824
     3.8041   3.8267   3.8268   3.9361   3.9535   3.9639   3.9867   4.0033
     4.0482   4.1281   4.1688   4.1717   4.2007   4.2090   4.3423   4.4168
     4.4198   4.4704   4.5008   4.5608   4.5832   4.5966   4.6978   4.7751
     4.8352   4.8411   4.8798   4.9496   4.9745   4.9877   5.0119   5.0448
     5.1196   5.1488

          k = 0.3125 0.5413-0.2308 ( 96108 PWs)   bands (ev):

  -114.1684-114.1684-114.1684-114.1683 -71.6407 -71.6407 -71.6407 -71.6407
   -71.6406 -71.6406 -71.6405 -71.6405 -71.4682 -71.4682 -71.4682 -71.4681
   -18.6315 -18.6171 -18.6169 -18.5360 -17.7397 -17.7395 -17.7377 -17.7314
   -17.3290 -17.3114 -17.3105 -17.3102 -17.1478 -17.1232 -17.1229 -17.0291
   -17.0290 -17.0288 -17.0288 -17.0288 -17.0256 -17.0244 -17.0244 -17.0165
   -16.9827 -16.9758 -16.9758 -16.8481 -16.1958 -15.9947 -15.9934 -15.9697
   -15.9480 -15.7655 -15.7633 -15.7421 -15.4926 -15.3223 -15.3203 -15.2839
   -15.2189 -15.1132 -15.1121 -15.0997 -12.6211 -12.5648 -12.5648 -12.2500
   -10.9252 -10.8741 -10.8740 -10.5278  -9.4261  -9.3937  -9.3933  -9.0684
    -8.7926  -8.7887  -8.7796  -8.5659  -8.5438  -8.3891  -8.3165  -8.3021
    -8.2917  -8.2329  -8.2284  -8.2189  -7.6675  -7.5619  -7.5068  -7.5055
    -7.0527  -6.9528  -6.9432  -6.9277  -6.2268  -6.2180  -6.2173  -6.1869
    -6.1690  -6.0959  -6.0863  -6.0579  -5.8462  -5.7860  -5.7784  -5.7730
    -5.7353  -5.6215  -5.6199  -5.6197  -5.5153  -5.5060  -5.4902  -5.3685
    -5.3633  -5.3353  -5.3345  -5.3277  -4.9893  -4.9170  -4.9126  -4.8959
    -4.6936  -4.6879  -4.6717  -4.5796  -4.5334  -4.5182  -4.5145  -4.5119
    -4.3199  -4.3184  -4.3030  -4.2997  -4.0062  -3.9955  -3.9912  -3.9854
    -3.9002  -3.8967  -3.8932  -3.8230  -3.8062  -3.8027  -3.7939  -3.6922
    -3.6801  -3.6456  -3.6237  -3.6120  -3.5467  -3.5106  -3.5104  -3.3850
    -3.2944  -3.2783  -3.2533  -3.0178  -0.9407  -0.7723  -0.7667  -0.7659
    -0.3147  -0.0521  -0.0036   0.0011   0.0036   0.2862   0.4379   0.4462
     0.4637   0.5064   0.5121   0.5155   0.5482   0.6162   0.7044   0.7123
     0.7717   1.0190   1.0300   1.0396   1.1790   1.6672   1.6760   1.7034
     1.7299   1.7345   1.7377   1.7448   2.0733   2.0821   2.0863   2.0993
     2.5164   2.5983   2.6226   2.6305   2.7519   2.8050   2.8110   2.8703
     2.8882   2.8965   2.9158   3.0098   3.1027   3.1687   3.1721   3.2420
     3.2748   3.2914   3.3384   3.3533   3.3615   3.6624   3.7404   3.7625
     3.7768   3.8608   3.8624   3.9247   3.9277   3.9296   4.0540   4.1572
     4.1770   4.1997   4.2011   4.4154   4.4696   4.4758   4.4787   4.5450
     4.5478   4.5547   4.5789   4.6180   4.6389   4.6926   4.7128   4.7521
     4.7642   4.9257   4.9397   4.9802   5.0220   5.1008   5.1055   5.1119
     5.1379   5.1863

          k = 0.3125 0.6856-0.2308 ( 96126 PWs)   bands (ev):

  -114.1684-114.1684-114.1684-114.1683 -71.6407 -71.6407 -71.6407 -71.6407
   -71.6406 -71.6406 -71.6405 -71.6405 -71.4682 -71.4682 -71.4682 -71.4681
   -18.6455 -18.6154 -18.6026 -18.5375 -17.7410 -17.7402 -17.7352 -17.7324
   -17.3269 -17.3123 -17.3090 -17.3086 -17.1733 -17.1216 -17.1009 -17.0302
   -17.0293 -17.0290 -17.0288 -17.0287 -17.0266 -17.0242 -17.0230 -17.0166
   -16.9876 -16.9751 -16.9663 -16.8534 -16.1971 -16.0384 -16.0057 -15.9584
   -15.9024 -15.7885 -15.7579 -15.7212 -15.4922 -15.3558 -15.3287 -15.2460
   -15.2143 -15.1268 -15.1118 -15.0882 -12.6770 -12.5599 -12.5102 -12.2573
   -10.9740 -10.8706 -10.8224 -10.5381  -9.4563  -9.3933  -9.3604  -9.0888
    -8.7906  -8.7874  -8.7603  -8.5949  -8.5166  -8.3575  -8.3484  -8.3075
    -8.3003  -8.2208  -8.2098  -8.1967  -7.6524  -7.6216  -7.5024  -7.4625
    -7.0581  -6.9717  -6.9658  -6.9226  -6.2639  -6.2306  -6.2260  -6.1987
    -6.1289  -6.1250  -6.0789  -6.0227  -5.8481  -5.8011  -5.7741  -5.7737
    -5.7237  -5.6317  -5.6302  -5.6279  -5.5152  -5.5141  -5.4533  -5.3920
    -5.3866  -5.3095  -5.3066  -5.3057  -4.9895  -4.9354  -4.9317  -4.8795
    -4.7069  -4.6860  -4.6579  -4.5880  -4.5430  -4.5230  -4.5226  -4.5139
    -4.3181  -4.3109  -4.2937  -4.2778  -4.0222  -3.9927  -3.9852  -3.9740
    -3.9099  -3.8976  -3.8856  -3.8374  -3.8103  -3.8069  -3.7820  -3.6930
    -3.6773  -3.6728  -3.6327  -3.6006  -3.5331  -3.5041  -3.4652  -3.3921
    -3.3245  -3.2932  -3.2128  -3.0308  -0.9354  -0.7898  -0.7711  -0.7561
    -0.2940  -0.0339  -0.0174   0.0000   0.0167   0.2885   0.4019   0.4540
     0.4761   0.4789   0.5006   0.5119   0.5806   0.6414   0.6437   0.7128
     0.8176   1.0080   1.0107   1.0539   1.1982   1.5944   1.6235   1.6813
     1.7357   1.7516   1.7545   1.7883   2.0817   2.0930   2.0935   2.1083
     2.5234   2.5652   2.6049   2.6595   2.6999   2.7991   2.8248   2.8585
     2.8670   2.9160   2.9531   3.0190   3.0385   3.1797   3.1798   3.2104
     3.2628   3.3375   3.3589   3.3751   3.4408   3.6467   3.7139   3.7598
     3.7937   3.8137   3.8415   3.9252   3.9292   4.0080   4.1130   4.1395
     4.1660   4.2124   4.2401   4.3477   4.3997   4.4836   4.4847   4.4907
     4.5027   4.5554   4.5611   4.5925   4.6905   4.6974   4.7193   4.7931
     4.8485   4.8901   4.9472   4.9556   5.0564   5.0682   5.0791   5.1308
     5.1457   5.2082

          k = 0.3125-0.3248-0.2308 ( 96096 PWs)   bands (ev):

  -114.1684-114.1684-114.1684-114.1683 -71.6407 -71.6407 -71.6407 -71.6407
   -71.6406 -71.6406 -71.6405 -71.6405 -71.4682 -71.4682 -71.4682 -71.4681
   -18.6702 -18.6079 -18.5763 -18.5449 -17.7427 -17.7421 -17.7367 -17.7292
   -17.3175 -17.3141 -17.3062 -17.3002 -17.2199 -17.1153 -17.0677 -17.0365
   -17.0298 -17.0292 -17.0291 -17.0286 -17.0282 -17.0230 -17.0202 -17.0171
   -16.9936 -16.9711 -16.9390 -16.8766 -16.1989 -16.1216 -16.0468 -15.9098
   -15.8285 -15.8199 -15.7476 -15.6846 -15.4888 -15.4204 -15.3521 -15.1941
   -15.1776 -15.1519 -15.1147 -15.0690 -12.7793 -12.5358 -12.4138 -12.2917
   -11.0576 -10.8525 -10.7265 -10.5850  -9.5058  -9.3916  -9.2991  -9.1655
    -8.7708  -8.7492  -8.7126  -8.6650  -8.4227  -8.4120  -8.3436  -8.3228
    -8.2660  -8.1945  -8.1447  -8.1439  -7.7330  -7.5817  -7.4878  -7.4325
    -7.0860  -7.0419  -6.9962  -6.9642  -6.3295  -6.2919  -6.2616  -6.1923
    -6.1743  -6.0815  -6.0667  -5.9454  -5.8436  -5.8354  -5.7875  -5.7842
    -5.6935  -5.6597  -5.6493  -5.6446  -5.5059  -5.5021  -5.4175  -5.4101
    -5.3984  -5.2621  -5.2459  -5.2433  -4.9889  -4.9785  -4.9757  -4.8653
    -4.7043  -4.7015  -4.6489  -4.6341  -4.5704  -4.5479  -4.5371  -4.5306
    -4.2857  -4.2756  -4.2497  -4.2436  -4.0363  -3.9986  -3.9775  -3.9629
    -3.9536  -3.8687  -3.8609  -3.8469  -3.8427  -3.8096  -3.7468  -3.7150
    -3.7084  -3.7040  -3.6593  -3.5842  -3.4698  -3.4213  -3.4138  -3.4018
    -3.3893  -3.2623  -3.1474  -3.0916  -0.9036  -0.8572  -0.8025  -0.7249
    -0.2046  -0.0574  -0.0261   0.0555   0.0599   0.2734   0.3109   0.4170
     0.4456   0.4831   0.5052   0.5129   0.5327   0.6119   0.7043   0.7483
     0.8621   0.9634   0.9999   1.0701   1.2689   1.4539   1.5059   1.6582
     1.7460   1.7703   1.7796   1.8342   2.0815   2.1179   2.1195   2.1714
     2.5120   2.5350   2.5679   2.6143   2.6941   2.7436   2.7725   2.7985
     2.8375   2.9544   3.0016   3.0334   3.0782   3.0876   3.2072   3.2272
     3.2720   3.4033   3.4801   3.4804   3.5315   3.6373   3.6457   3.7122
     3.7931   3.8282   3.8763   3.9483   3.9491   4.0462   4.1238   4.1402
     4.1548   4.2041   4.2140   4.2862   4.3521   4.3873   4.4130   4.4393
     4.4767   4.5186   4.5998   4.6191   4.7208   4.7322   4.7892   4.8224
     4.8278   4.8771   4.9269   4.9439   4.9971   5.0185   5.0776   5.0978
     5.1052   5.1385

          k = 0.3125-0.1804-0.2308 ( 96048 PWs)   bands (ev):

  -114.1684-114.1684-114.1684-114.1683 -71.6407 -71.6407 -71.6407 -71.6407
   -71.6406 -71.6406 -71.6405 -71.6405 -71.4682 -71.4682 -71.4682 -71.4681
   -18.6876 -18.5955 -18.5571 -18.5569 -17.7454 -17.7419 -17.7418 -17.7234
   -17.3164 -17.3048 -17.3040 -17.2918 -17.2532 -17.1021 -17.0501 -17.0493
   -17.0301 -17.0293 -17.0293 -17.0292 -17.0291 -17.0215 -17.0179 -17.0178
   -16.9964 -16.9628 -16.9088 -16.9081 -16.1897 -16.1854 -16.0964 -15.8543
   -15.8466 -15.7573 -15.7525 -15.6610 -15.4765 -15.4700 -15.3854 -15.1697
   -15.1673 -15.1288 -15.1229 -15.0550 -12.8549 -12.4941 -12.3455 -12.3454
   -11.1147 -10.8167 -10.6546 -10.6543  -9.5378  -9.3795  -9.2548  -9.2509
    -8.7413  -8.7098  -8.6706  -8.6703  -8.4569  -8.3955  -8.3438  -8.3329
    -8.1773  -8.1744  -8.1018  -8.0994  -7.8107  -7.4847  -7.4782  -7.4563
    -7.1311  -7.0935  -7.0340  -7.0323  -6.3574  -6.3447  -6.3146  -6.1937
    -6.1642  -6.1124  -6.0508  -5.8894  -5.8632  -5.8343  -5.8129  -5.7843
    -5.6920  -5.6663  -5.6520  -5.6500  -5.4916  -5.4524  -5.4414  -5.4034
    -5.3995  -5.2237  -5.2056  -5.1899  -5.0028  -4.9986  -4.9888  -4.8594
    -4.7267  -4.6987  -4.6774  -4.6584  -4.5862  -4.5775  -4.5648  -4.5429
    -4.2606  -4.2603  -4.2559  -4.1466  -4.0563  -4.0353  -4.0080  -3.9593
    -3.9373  -3.8617  -3.8410  -3.8310  -3.8238  -3.8032  -3.7818  -3.7758
    -3.6863  -3.6854  -3.6484  -3.6433  -3.4499  -3.4136  -3.3903  -3.3823
    -3.2896  -3.1817  -3.1750  -3.1000  -0.9453  -0.8476  -0.8423  -0.7122
    -0.0990  -0.0847  -0.0726   0.0765   0.1524   0.1848   0.3231   0.3567
     0.3753   0.4841   0.4992   0.5045   0.5482   0.5904   0.6489   0.8696
     0.8799   0.9097   1.0249   1.0724   1.3346   1.3542   1.4440   1.6735
     1.7698   1.7936   1.7974   1.8542   2.0466   2.1400   2.1733   2.2450
     2.4869   2.5062   2.5637   2.5797   2.6162   2.6942   2.7473   2.7841
     2.8705   2.9086   3.0117   3.0135   3.0231   3.1537   3.2322   3.3267
     3.3348   3.3983   3.4933   3.5515   3.6187   3.6245   3.6329   3.7480
     3.8404   3.8541   3.8885   3.9159   3.9511   4.0040   4.0486   4.0743
     4.1143   4.1718   4.1996   4.2316   4.2514   4.2658   4.3981   4.4928
     4.5107   4.5538   4.6122   4.6295   4.6973   4.7031   4.7222   4.7886
     4.8004   4.8621   4.9327   4.9431   4.9837   4.9989   5.0385   5.0774
     5.0828   5.1364

          k = 0.4375 0.7578-0.2308 ( 96082 PWs)   bands (ev):

  -114.1684-114.1684-114.1684-114.1683 -71.6407 -71.6407 -71.6407 -71.6407
   -71.6406 -71.6406 -71.6405 -71.6405 -71.4682 -71.4682 -71.4682 -71.4681
   -18.6396 -18.6395 -18.5778 -18.5438 -17.7406 -17.7372 -17.7370 -17.7347
   -17.3228 -17.3120 -17.3083 -17.3078 -17.1657 -17.1651 -17.0660 -17.0349
   -17.0293 -17.0293 -17.0283 -17.0283 -17.0260 -17.0259 -17.0208 -17.0173
   -16.9859 -16.9858 -16.9392 -16.8711 -16.1863 -16.1065 -15.9338 -15.9335
   -15.9312 -15.8389 -15.7203 -15.7163 -15.4829 -15.4156 -15.2648 -15.2605
   -15.2022 -15.1532 -15.0937 -15.0912 -12.6548 -12.6547 -12.4155 -12.2831
   -10.9569 -10.9567 -10.7245 -10.5712  -9.4493  -9.4489  -9.2852  -9.1343
    -8.7840  -8.7621  -8.7548  -8.6762  -8.4211  -8.3597  -8.3487  -8.3273
    -8.2976  -8.2523  -8.1711  -8.1709  -7.6077  -7.6069  -7.5945  -7.4288
    -7.0635  -7.0461  -6.9324  -6.9172  -6.3199  -6.2668  -6.1987  -6.1586
    -6.1458  -6.1456  -6.0376  -6.0208  -5.8461  -5.8176  -5.7829  -5.7532
    -5.7029  -5.6703  -5.6533  -5.6409  -5.5257  -5.5089  -5.4263  -5.3925
    -5.3442  -5.3322  -5.2876  -5.2678  -4.9879  -4.9644  -4.9249  -4.9071
    -4.7053  -4.6689  -4.6461  -4.6215  -4.5485  -4.5404  -4.5123  -4.5017
    -4.3294  -4.3220  -4.2922  -4.2526  -3.9889  -3.9879  -3.9833  -3.9628
    -3.9033  -3.8886  -3.8701  -3.8396  -3.8368  -3.8299  -3.8049  -3.7232
    -3.6590  -3.6498  -3.6185  -3.6015  -3.5353  -3.5003  -3.4384  -3.4154
    -3.2876  -3.2665  -3.2482  -3.0782  -0.9145  -0.8143  -0.7623  -0.7609
    -0.2434  -0.0778   0.0212   0.0228   0.0319   0.2822   0.3202   0.4355
     0.4685   0.4972   0.5146   0.5423   0.5475   0.6169   0.7072   0.7692
     0.8633   0.9220   0.9907   1.0586   1.2522   1.4749   1.5971   1.6075
     1.7395   1.7643   1.7912   1.8065   2.0685   2.0754   2.0943   2.1477
     2.5582   2.5614   2.5632   2.6562   2.7145   2.7227   2.8362   2.8414
     2.8609   2.8985   2.9951   3.0369   3.0556   3.0601   3.2115   3.2138
     3.2378   3.4177   3.4241   3.4618   3.5095   3.6299   3.6860   3.7009
     3.7416   3.7921   3.8585   3.8881   3.9969   4.1064   4.1407   4.1776
     4.2010   4.2023   4.2622   4.3059   4.3383   4.3998   4.4413   4.4614
     4.4694   4.5330   4.6173   4.6842   4.6874   4.7351   4.7725   4.8123
     4.8236   4.9093   4.9599   4.9667   5.0510   5.1095   5.1128   5.1188
     5.1229   5.1373

          k = 0.4375-0.2526-0.2308 ( 96066 PWs)   bands (ev):

  -114.1684-114.1684-114.1684-114.1683 -71.6407 -71.6407 -71.6407 -71.6407
   -71.6406 -71.6406 -71.6405 -71.6405 -71.4682 -71.4682 -71.4682 -71.4681
   -18.6587 -18.6264 -18.5575 -18.5574 -17.7403 -17.7387 -17.7386 -17.7328
   -17.3153 -17.3149 -17.3105 -17.3020 -17.2002 -17.1461 -17.0462 -17.0459
   -17.0296 -17.0293 -17.0283 -17.0283 -17.0274 -17.0247 -17.0187 -17.0186
   -16.9912 -16.9810 -16.9045 -16.9041 -16.1632 -16.1606 -15.9856 -15.8859
   -15.8818 -15.8670 -15.7251 -15.6926 -15.4621 -15.4590 -15.2989 -15.2098
   -15.1789 -15.1776 -15.1018 -15.0779 -12.7319 -12.6056 -12.3387 -12.3386
   -11.0209 -10.9161 -10.6396 -10.6395  -9.4862  -9.4294  -9.2157  -9.2129
    -8.7582  -8.7449  -8.7302  -8.7255  -8.3926  -8.3687  -8.3506  -8.3278
    -8.2754  -8.2571  -8.1475  -8.1451  -7.6911  -7.5635  -7.4947  -7.4926
    -7.0822  -7.0655  -6.9391  -6.9377  -6.3244  -6.3165  -6.1942  -6.1910
    -6.1760  -6.0900  -6.0551  -5.9745  -5.8477  -5.8275  -5.7772  -5.7719
    -5.6819  -5.6696  -5.6684  -5.6658  -5.5263  -5.4985  -5.4168  -5.3942
    -5.3618  -5.2826  -5.2649  -5.2469  -4.9863  -4.9803  -4.9564  -4.9009
    -4.6794  -4.6783  -4.6694  -4.6359  -4.5550  -4.5527  -4.5209  -4.5065
    -4.3176  -4.2929  -4.2664  -4.2645  -3.9959  -3.9886  -3.9667  -3.9630
    -3.9154  -3.8796  -3.8581  -3.8519  -3.8370  -3.8148  -3.7846  -3.7720
    -3.6657  -3.6636  -3.6353  -3.5870  -3.5113  -3.4551  -3.4404  -3.4146
    -3.3316  -3.2164  -3.1719  -3.1675  -0.8673  -0.8643  -0.8054  -0.7271
    -0.1532  -0.1479   0.0090   0.0558   0.1320   0.1513   0.3664   0.3880
     0.4668   0.4881   0.5036   0.5149   0.5798   0.6041   0.7729   0.8160
     0.8370   0.8693   1.0185   1.0338   1.3441   1.3562   1.5276   1.6115
     1.7572   1.7589   1.7817   1.8344   2.0736   2.0873   2.0928   2.1726
     2.5298   2.5647   2.5837   2.6280   2.6527   2.7555   2.7915   2.8107
     2.8562   2.9110   2.9877   3.0171   3.0931   3.1150   3.1276   3.2823
     3.3236   3.3552   3.4117   3.5376   3.6038   3.6091   3.6587   3.7413
     3.7520   3.8475   3.8520   3.8528   3.9563   3.9664   4.1435   4.2037
     4.2244   4.2539   4.3010   4.3287   4.3593   4.3599   4.3634   4.4592
     4.4614   4.5031   4.6128   4.6688   4.7439   4.7865   4.8129   4.8329
     4.8773   4.8893   4.9175   4.9696   4.9729   5.0098   5.0436   5.0617
     5.0919   5.1772

          k =-0.0625 0.1083 0.2308 ( 96006 PWs)   bands (ev):

  -114.1684-114.1684-114.1684-114.1683 -71.6407 -71.6407 -71.6407 -71.6407
   -71.6406 -71.6406 -71.6405 -71.6405 -71.4682 -71.4682 -71.4682 -71.4681
   -18.7177 -18.5595 -18.5594 -18.5545 -17.7490 -17.7489 -17.7482 -17.7099
   -17.3213 -17.3127 -17.2808 -17.2784 -17.2781 -17.0644 -17.0640 -17.0578
   -17.0307 -17.0306 -17.0304 -17.0303 -17.0302 -17.0170 -17.0170 -17.0165
   -17.0000 -16.9234 -16.9232 -16.9142 -16.2338 -16.2228 -16.2219 -15.7949
   -15.7825 -15.7804 -15.6382 -15.6258 -15.5022 -15.4919 -15.4899 -15.1527
   -15.1467 -15.1461 -15.0400 -15.0300 -12.9960 -12.3727 -12.3726 -12.3534
   -11.2122 -10.7005 -10.7004 -10.6783  -9.5906  -9.3284  -9.3279  -9.3116
    -8.6493  -8.6410  -8.6260  -8.5715  -8.5404  -8.3315  -8.3216  -8.3118
    -8.0489  -8.0408  -8.0386  -7.9835  -7.9376  -7.4349  -7.4036  -7.3934
    -7.2465  -7.2415  -7.2249  -7.2220  -6.4318  -6.4305  -6.4262  -6.1669
    -6.1630  -6.1556  -6.0965  -5.8602  -5.8569  -5.8532  -5.8084  -5.7711
    -5.7500  -5.6400  -5.6390  -5.6377  -5.4334  -5.4291  -5.4202  -5.3927
    -5.3830  -5.1449  -5.1371  -5.1308  -4.9964  -4.9953  -4.9916  -4.7933
    -4.7352  -4.7338  -4.7280  -4.7079  -4.6640  -4.6548  -4.6363  -4.6323
    -4.2749  -4.2725  -4.2681  -4.1091  -4.1086  -4.1006  -4.0015  -3.9431
    -3.9189  -3.8565  -3.8515  -3.8425  -3.7923  -3.7896  -3.7805  -3.7265
    -3.7152  -3.7025  -3.6145  -3.5797  -3.3910  -3.3799  -3.3766  -3.2201
    -3.2196  -3.1847  -3.0176  -2.9779  -1.2106  -0.8109  -0.7842  -0.7833
    -0.2443   0.0137   0.0526   0.0633   0.1157   0.1295   0.1303   0.3421
     0.3677   0.3681   0.5462   0.5643   0.5648   0.5691   0.5699   0.8600
     0.9992   1.0166   1.0277   1.0986   1.3373   1.3550   1.3576   1.7645
     1.8094   1.9005   1.9011   1.9197   1.9540   2.1988   2.2122   2.2151
     2.4522   2.5473   2.5623   2.5755   2.5778   2.6119   2.7382   2.7630
     2.7632   2.8339   2.9067   3.0237   3.0377   3.0482   3.3483   3.3596
     3.4375   3.4820   3.6441   3.6484   3.6528   3.6941   3.7350   3.7559
     3.7777   3.8466   3.9067   3.9105   3.9197   3.9248   4.0106   4.0124
     4.0690   4.1018   4.1386   4.1599   4.1642   4.1739   4.2557   4.4037
     4.4087   4.4425   4.4491   4.4534   4.5825   4.5866   4.6513   4.7119
     4.7716   4.7860   4.9357   4.9600   4.9650   4.9986   5.0012   5.0487
     5.0581   5.1325

          k = 0.1250 0.0000-0.2308 ( 96006 PWs)   bands (ev):

  -114.1684-114.1684-114.1684-114.1683 -71.6407 -71.6407 -71.6407 -71.6407
   -71.6406 -71.6406 -71.6405 -71.6405 -71.4682 -71.4682 -71.4682 -71.4681
   -18.7177 -18.5595 -18.5594 -18.5545 -17.7490 -17.7490 -17.7482 -17.7099
   -17.3212 -17.3127 -17.2808 -17.2783 -17.2781 -17.0643 -17.0640 -17.0578
   -17.0307 -17.0306 -17.0304 -17.0302 -17.0302 -17.0170 -17.0170 -17.0165
   -17.0000 -16.9234 -16.9232 -16.9142 -16.2339 -16.2228 -16.2219 -15.7949
   -15.7826 -15.7804 -15.6382 -15.6258 -15.5022 -15.4919 -15.4898 -15.1526
   -15.1467 -15.1462 -15.0400 -15.0300 -12.9960 -12.3727 -12.3726 -12.3534
   -11.2122 -10.7005 -10.7004 -10.6783  -9.5906  -9.3285  -9.3278  -9.3116
    -8.6493  -8.6410  -8.6260  -8.5716  -8.5403  -8.3315  -8.3216  -8.3118
    -8.0489  -8.0408  -8.0386  -7.9836  -7.9375  -7.4349  -7.4036  -7.3934
    -7.2465  -7.2417  -7.2248  -7.2219  -6.4318  -6.4304  -6.4263  -6.1670
    -6.1629  -6.1556  -6.0965  -5.8603  -5.8568  -5.8532  -5.8084  -5.7712
    -5.7500  -5.6400  -5.6390  -5.6378  -5.4334  -5.4292  -5.4201  -5.3927
    -5.3831  -5.1449  -5.1371  -5.1307  -4.9964  -4.9954  -4.9916  -4.7933
    -4.7353  -4.7337  -4.7280  -4.7079  -4.6640  -4.6548  -4.6363  -4.6323
    -4.2749  -4.2726  -4.2681  -4.1091  -4.1086  -4.1005  -4.0015  -3.9431
    -3.9189  -3.8565  -3.8515  -3.8426  -3.7923  -3.7895  -3.7805  -3.7264
    -3.7152  -3.7025  -3.6145  -3.5797  -3.3910  -3.3798  -3.3766  -3.2200
    -3.2197  -3.1846  -3.0177  -2.9779  -1.2106  -0.8110  -0.7842  -0.7833
    -0.2443   0.0137   0.0526   0.0633   0.1158   0.1295   0.1302   0.3421
     0.3677   0.3681   0.5463   0.5643   0.5648   0.5691   0.5698   0.8600
     0.9992   1.0166   1.0278   1.0986   1.3372   1.3552   1.3576   1.7646
     1.8094   1.9005   1.9011   1.9197   1.9540   2.1988   2.2122   2.2151
     2.4522   2.5472   2.5623   2.5756   2.5779   2.6117   2.7383   2.7630
     2.7631   2.8339   2.9067   3.0235   3.0378   3.0483   3.3483   3.3596
     3.4374   3.4820   3.6441   3.6484   3.6528   3.6941   3.7351   3.7559
     3.7777   3.8467   3.9068   3.9104   3.9196   3.9248   4.0106   4.0124
     4.0690   4.1018   4.1386   4.1600   4.1642   4.1739   4.2557   4.4037
     4.4087   4.4425   4.4491   4.4533   4.5826   4.5866   4.6513   4.7119
     4.7716   4.7860   4.9356   4.9601   4.9650   4.9986   5.0012   5.0499
     5.0565   5.1315

          k =-0.0625 0.2526 0.2308 ( 96096 PWs)   bands (ev):

  -114.1684-114.1684-114.1684-114.1683 -71.6407 -71.6407 -71.6407 -71.6407
   -71.6406 -71.6406 -71.6405 -71.6405 -71.4682 -71.4682 -71.4682 -71.4681
   -18.7036 -18.5759 -18.5629 -18.5520 -17.7475 -17.7459 -17.7441 -17.7168
   -17.3193 -17.2953 -17.2913 -17.2852 -17.2841 -17.0794 -17.0608 -17.0492
   -17.0304 -17.0300 -17.0300 -17.0297 -17.0296 -17.0191 -17.0179 -17.0168
   -16.9985 -16.9441 -16.9239 -16.9034 -16.2185 -16.1960 -16.1633 -15.8360
   -15.8005 -15.7724 -15.6946 -15.6427 -15.4933 -15.4749 -15.4397 -15.1666
   -15.1505 -15.1369 -15.0828 -15.0415 -12.9280 -12.4265 -12.3764 -12.3342
   -11.1665 -10.7526 -10.6967 -10.6482  -9.5660  -9.3493  -9.3058  -9.2687
    -8.6984  -8.6951  -8.6236  -8.6225  -8.4991  -8.3951  -8.3309  -8.3209
    -8.1188  -8.0968  -8.0738  -8.0500  -7.8773  -7.4972  -7.4205  -7.4127
    -7.1814  -7.1448  -7.1292  -7.1183  -6.3947  -6.3832  -6.3739  -6.1856
    -6.1486  -6.1482  -6.0637  -5.8675  -5.8430  -5.8404  -5.8395  -5.7824
    -5.7196  -5.6465  -5.6447  -5.6441  -5.4512  -5.4447  -5.4203  -5.4169
    -5.4042  -5.1789  -5.1763  -5.1466  -5.0087  -5.0016  -5.0012  -4.8351
    -4.7376  -4.7311  -4.6944  -4.6762  -4.6175  -4.6039  -4.5991  -4.5757
    -4.2685  -4.2520  -4.2495  -4.0867  -4.0796  -4.0553  -4.0497  -3.9555
    -3.8985  -3.8708  -3.8469  -3.8331  -3.8251  -3.7966  -3.7924  -3.7307
    -3.7118  -3.6806  -3.6711  -3.6297  -3.4330  -3.3862  -3.3772  -3.3105
    -3.2298  -3.1665  -3.1545  -3.0337  -1.0655  -0.8479  -0.7939  -0.7400
    -0.1484  -0.0705   0.0114   0.0639   0.1250   0.2114   0.2575   0.3016
     0.3758   0.4333   0.5079   0.5278   0.5627   0.5758   0.5785   0.8702
     0.9292   0.9570   1.0337   1.0878   1.3260   1.3547   1.4016   1.7131
     1.8083   1.8393   1.8407   1.8428   2.0144   2.1894   2.2287   2.2531
     2.4697   2.4979   2.5341   2.5582   2.6317   2.6353   2.7324   2.7550
     2.8365   2.8687   2.9562   3.0275   3.0848   3.1088   3.2315   3.3435
     3.4578   3.4699   3.5148   3.5775   3.6293   3.6647   3.7039   3.7915
     3.8241   3.8244   3.8268   3.8989   3.9397   3.9712   4.0360   4.0482
     4.0774   4.1535   4.1606   4.1969   4.1989   4.2320   4.3634   4.4049
     4.4164   4.4639   4.5501   4.5894   4.6508   4.6619   4.7132   4.7925
     4.8092   4.8584   4.8770   4.9418   4.9544   4.9802   5.0490   5.0717
     5.1163   5.1695

          k =-0.1875 0.1804-0.2308 ( 96096 PWs)   bands (ev):

  -114.1684-114.1684-114.1684-114.1683 -71.6407 -71.6407 -71.6407 -71.6407
   -71.6406 -71.6406 -71.6405 -71.6405 -71.4682 -71.4682 -71.4682 -71.4681
   -18.7036 -18.5759 -18.5629 -18.5520 -17.7474 -17.7460 -17.7441 -17.7168
   -17.3192 -17.2957 -17.2903 -17.2857 -17.2841 -17.0788 -17.0618 -17.0488
   -17.0304 -17.0301 -17.0300 -17.0297 -17.0296 -17.0192 -17.0179 -17.0168
   -16.9985 -16.9439 -16.9244 -16.9030 -16.2205 -16.1924 -16.1649 -15.8322
   -15.8080 -15.7687 -15.6943 -15.6430 -15.4966 -15.4681 -15.4433 -15.1655
   -15.1528 -15.1356 -15.0825 -15.0418 -12.9280 -12.4265 -12.3763 -12.3342
   -11.1665 -10.7525 -10.6969 -10.6480  -9.5660  -9.3485  -9.3082  -9.2671
    -8.7099  -8.6649  -8.6466  -8.6233  -8.4995  -8.3667  -8.3579  -8.3168
    -8.1171  -8.1012  -8.0709  -8.0501  -7.8772  -7.4940  -7.4371  -7.4026
    -7.1642  -7.1452  -7.1323  -7.1291  -6.3881  -6.3847  -6.3799  -6.1767
    -6.1716  -6.1331  -6.0638  -5.8575  -5.8552  -5.8424  -5.8344  -5.7850
    -5.7177  -5.6518  -5.6450  -5.6377  -5.4477  -5.4427  -5.4393  -5.4065
    -5.4027  -5.1884  -5.1585  -5.1536  -5.0143  -5.0024  -4.9977  -4.8327
    -4.7443  -4.7100  -4.6979  -4.6875  -4.6250  -4.5978  -4.5930  -4.5809
    -4.2663  -4.2588  -4.2445  -4.0901  -4.0666  -4.0587  -4.0557  -3.9549
    -3.8975  -3.8716  -3.8560  -3.8415  -3.8255  -3.7883  -3.7751  -3.7300
    -3.7207  -3.6784  -3.6738  -3.6292  -3.4201  -3.4046  -3.3729  -3.3103
    -3.2260  -3.1690  -3.1571  -3.0315  -1.0656  -0.8454  -0.7977  -0.7388
    -0.1486  -0.0615  -0.0109   0.0791   0.1372   0.1913   0.2638   0.3160
     0.3601   0.4292   0.5020   0.5244   0.5563   0.5831   0.5946   0.8671
     0.9092   0.9960   1.0139   1.0903   1.3182   1.3691   1.3954   1.7136
     1.8117   1.8370   1.8399   1.8403   2.0160   2.2050   2.2113   2.2510
     2.4700   2.4979   2.5347   2.5635   2.6306   2.6350   2.7207   2.7820
     2.8084   2.8688   2.9561   3.0468   3.0761   3.1321   3.2213   3.3036
     3.4583   3.4857   3.5139   3.5954   3.6237   3.6685   3.7279   3.7689
     3.7996   3.8217   3.8597   3.8665   3.9349   3.9796   4.0428   4.0661
     4.0838   4.1434   4.1834   4.2018   4.2119   4.2148   4.3477   4.3806
     4.3877   4.5164   4.5616   4.5745   4.6288   4.6572   4.7232   4.8157
     4.8221   4.8326   4.9141   4.9311   4.9326   4.9810   5.0246   5.0642
     5.0891   5.2097

          k = 0.2500 0.0722-0.2308 ( 96096 PWs)   bands (ev):

  -114.1684-114.1684-114.1684-114.1683 -71.6407 -71.6407 -71.6407 -71.6407
[...]
     0.4425   0.5006   0.5194   0.5444   0.5583   0.5667   0.6393   0.7637
     0.9213   0.9237   1.0209   1.0417   1.2780   1.4331   1.5078   1.6613
     1.7476   1.7631   1.7799   1.8512   2.0561   2.1055   2.1246   2.2173
     2.5132   2.5591   2.5663   2.6054   2.6120   2.7802   2.7854   2.8048
     2.9109   2.9399   2.9536   2.9675   3.0792   3.0821   3.2040   3.2589
     3.3397   3.4213   3.4491   3.5149   3.5303   3.6303   3.6507   3.7112
     3.7327   3.8310   3.8966   3.9066   3.9554   4.0641   4.0692   4.1418
     4.1458   4.1800   4.2893   4.2917   4.3386   4.3445   4.3772   4.4492
     4.5159   4.5211   4.6129   4.6761   4.7127   4.7197   4.7937   4.8172
     4.8381   4.8395   4.9120   4.9217   5.0252   5.0577   5.0712   5.1214
     5.1558   5.1872

          k =-0.1250 0.4330 0.2308 ( 96096 PWs)   bands (ev):

  -114.1684-114.1684-114.1684-114.1683 -71.6407 -71.6407 -71.6407 -71.6407
   -71.6406 -71.6406 -71.6405 -71.6405 -71.4682 -71.4682 -71.4682 -71.4681
   -18.6702 -18.6079 -18.5763 -18.5449 -17.7428 -17.7420 -17.7367 -17.7292
   -17.3172 -17.3144 -17.3071 -17.2994 -17.2197 -17.1163 -17.0667 -17.0368
   -17.0297 -17.0291 -17.0291 -17.0286 -17.0282 -17.0229 -17.0203 -17.0170
   -16.9936 -16.9712 -16.9385 -16.8770 -16.1966 -16.1263 -16.0436 -15.9131
   -15.8211 -15.8201 -15.7538 -15.6828 -15.4864 -15.4276 -15.3459 -15.1951
   -15.1797 -15.1489 -15.1177 -15.0675 -12.7793 -12.5358 -12.4139 -12.2917
   -11.0575 -10.8526 -10.7262 -10.5851  -9.5057  -9.3926  -9.2960  -9.1685
    -8.7750  -8.7567  -8.7153  -8.6276  -8.4708  -8.4084  -8.3427  -8.3016
    -8.2578  -8.2023  -8.1459  -8.1434  -7.7332  -7.5809  -7.4931  -7.4202
    -7.0883  -7.0750  -6.9682  -6.9635  -6.3373  -6.2793  -6.2603  -6.2072
    -6.1401  -6.1117  -6.0660  -5.9426  -5.8659  -5.8107  -5.8021  -5.7637
    -5.6842  -5.6768  -5.6541  -5.6529  -5.5078  -5.4570  -5.4468  -5.4032
    -5.4027  -5.2694  -5.2596  -5.2253  -4.9943  -4.9722  -4.9638  -4.8780
    -4.7185  -4.7114  -4.6300  -4.6261  -4.5668  -4.5544  -4.5452  -4.5210
    -4.2852  -4.2831  -4.2477  -4.2410  -4.0321  -4.0166  -3.9563  -3.9562
    -3.9215  -3.9175  -3.8708  -3.8369  -3.8298  -3.8051  -3.7753  -3.7497
    -3.6906  -3.6572  -3.6491  -3.6111  -3.4805  -3.4701  -3.3968  -3.3946
    -3.3253  -3.2784  -3.1624  -3.0882  -0.9065  -0.8566  -0.7979  -0.7270
    -0.2085  -0.0405  -0.0233   0.0405   0.0415   0.2903   0.3108   0.4111
     0.4425   0.5006   0.5194   0.5444   0.5583   0.5667   0.6392   0.7637
     0.9213   0.9238   1.0208   1.0416   1.2780   1.4331   1.5079   1.6612
     1.7477   1.7631   1.7797   1.8512   2.0561   2.1055   2.1247   2.2173
     2.5133   2.5591   2.5662   2.6055   2.6120   2.7803   2.7855   2.8048
     2.9109   2.9399   2.9536   2.9676   3.0792   3.0821   3.2040   3.2589
     3.3396   3.4213   3.4491   3.5149   3.5303   3.6303   3.6506   3.7112
     3.7327   3.8310   3.8965   3.9066   3.9554   4.0641   4.0693   4.1418
     4.1458   4.1800   4.2894   4.2917   4.3386   4.3446   4.3772   4.4492
     4.5159   4.5211   4.6129   4.6761   4.7127   4.7198   4.7936   4.8172
     4.8382   4.8395   4.9120   4.9216   5.0253   5.0561   5.0711   5.1210
     5.1560   5.1613

          k =-0.3125-0.1804 0.2308 ( 96048 PWs)   bands (ev):

  -114.1684-114.1684-114.1684-114.1683 -71.6407 -71.6407 -71.6407 -71.6407
   -71.6406 -71.6406 -71.6405 -71.6405 -71.4682 -71.4682 -71.4682 -71.4681
   -18.6876 -18.5955 -18.5571 -18.5570 -17.7455 -17.7419 -17.7417 -17.7234
   -17.3163 -17.3049 -17.3040 -17.2918 -17.2532 -17.1021 -17.0501 -17.0493
   -17.0301 -17.0293 -17.0293 -17.0292 -17.0291 -17.0215 -17.0179 -17.0178
   -16.9964 -16.9628 -16.9088 -16.9081 -16.1898 -16.1854 -16.0964 -15.8543
   -15.8465 -15.7573 -15.7525 -15.6610 -15.4765 -15.4700 -15.3854 -15.1697
   -15.1673 -15.1288 -15.1229 -15.0550 -12.8549 -12.4941 -12.3455 -12.3454
   -11.1147 -10.8167 -10.6546 -10.6543  -9.5378  -9.3794  -9.2549  -9.2509
    -8.7413  -8.7098  -8.6706  -8.6703  -8.4568  -8.3955  -8.3438  -8.3329
    -8.1773  -8.1744  -8.1018  -8.0994  -7.8107  -7.4846  -7.4781  -7.4563
    -7.1310  -7.0935  -7.0340  -7.0324  -6.3574  -6.3446  -6.3146  -6.1937
    -6.1643  -6.1124  -6.0509  -5.8893  -5.8633  -5.8344  -5.8128  -5.7843
    -5.6921  -5.6662  -5.6519  -5.6500  -5.4916  -5.4523  -5.4415  -5.4034
    -5.3994  -5.2237  -5.2056  -5.1899  -5.0027  -4.9987  -4.9889  -4.8594
    -4.7267  -4.6987  -4.6774  -4.6584  -4.5862  -4.5775  -4.5648  -4.5429
    -4.2606  -4.2603  -4.2559  -4.1467  -4.0563  -4.0353  -4.0081  -3.9593
    -3.9373  -3.8618  -3.8410  -3.8310  -3.8238  -3.8032  -3.7817  -3.7758
    -3.6863  -3.6854  -3.6484  -3.6433  -3.4498  -3.4136  -3.3902  -3.3823
    -3.2896  -3.1817  -3.1751  -3.1000  -0.9453  -0.8476  -0.8424  -0.7122
    -0.0991  -0.0847  -0.0726   0.0765   0.1524   0.1849   0.3231   0.3568
     0.3753   0.4842   0.4991   0.5045   0.5482   0.5904   0.6488   0.8696
     0.8798   0.9098   1.0249   1.0724   1.3345   1.3542   1.4441   1.6737
     1.7699   1.7935   1.7974   1.8542   2.0466   2.1400   2.1733   2.2449
     2.4869   2.5061   2.5636   2.5797   2.6160   2.6942   2.7473   2.7841
     2.8706   2.9085   3.0118   3.0135   3.0232   3.1539   3.2322   3.3267
     3.3348   3.3984   3.4933   3.5515   3.6186   3.6245   3.6329   3.7481
     3.8403   3.8541   3.8885   3.9159   3.9511   4.0040   4.0485   4.0743
     4.1143   4.1718   4.1997   4.2315   4.2513   4.2658   4.3982   4.4927
     4.5107   4.5538   4.6122   4.6295   4.6972   4.7030   4.7221   4.7886
     4.8004   4.8621   4.9327   4.9431   4.9837   4.9993   5.0440   5.0809
     5.0810   5.1647

          k = 0.0000-0.3608-0.2308 ( 96048 PWs)   bands (ev):

  -114.1684-114.1684-114.1684-114.1683 -71.6407 -71.6407 -71.6407 -71.6407
   -71.6406 -71.6406 -71.6405 -71.6405 -71.4682 -71.4682 -71.4682 -71.4681
   -18.6876 -18.5955 -18.5570 -18.5570 -17.7454 -17.7419 -17.7418 -17.7234
   -17.3164 -17.3049 -17.3040 -17.2918 -17.2532 -17.1021 -17.0501 -17.0493
   -17.0301 -17.0293 -17.0293 -17.0292 -17.0291 -17.0215 -17.0179 -17.0178
   -16.9964 -16.9628 -16.9088 -16.9081 -16.1897 -16.1853 -16.0965 -15.8543
   -15.8466 -15.7573 -15.7525 -15.6609 -15.4765 -15.4700 -15.3855 -15.1697
   -15.1673 -15.1288 -15.1229 -15.0549 -12.8549 -12.4941 -12.3455 -12.3454
   -11.1147 -10.8167 -10.6545 -10.6543  -9.5378  -9.3794  -9.2548  -9.2509
    -8.7413  -8.7098  -8.6706  -8.6704  -8.4569  -8.3955  -8.3437  -8.3329
    -8.1773  -8.1744  -8.1018  -8.0993  -7.8108  -7.4847  -7.4782  -7.4563
    -7.1309  -7.0935  -7.0340  -7.0324  -6.3574  -6.3446  -6.3146  -6.1937
    -6.1643  -6.1124  -6.0509  -5.8893  -5.8632  -5.8343  -5.8129  -5.7843
    -5.6922  -5.6662  -5.6520  -5.6500  -5.4917  -5.4525  -5.4415  -5.4033
    -5.3994  -5.2237  -5.2056  -5.1899  -5.0028  -4.9986  -4.9889  -4.8594
    -4.7267  -4.6987  -4.6774  -4.6585  -4.5863  -4.5775  -4.5648  -4.5429
    -4.2606  -4.2603  -4.2559  -4.1467  -4.0563  -4.0353  -4.0081  -3.9593
    -3.9373  -3.8617  -3.8410  -3.8310  -3.8239  -3.8032  -3.7817  -3.7758
    -3.6863  -3.6854  -3.6484  -3.6433  -3.4499  -3.4136  -3.3902  -3.3823
    -3.2896  -3.1818  -3.1750  -3.1000  -0.9453  -0.8475  -0.8423  -0.7122
    -0.0991  -0.0847  -0.0726   0.0765   0.1523   0.1849   0.3230   0.3568
     0.3753   0.4841   0.4991   0.5045   0.5483   0.5903   0.6489   0.8696
     0.8798   0.9097   1.0249   1.0724   1.3346   1.3543   1.4440   1.6736
     1.7698   1.7935   1.7975   1.8542   2.0466   2.1400   2.1734   2.2449
     2.4870   2.5060   2.5637   2.5798   2.6161   2.6942   2.7472   2.7842
     2.8706   2.9086   3.0118   3.0135   3.0232   3.1537   3.2322   3.3266
     3.3348   3.3983   3.4933   3.5515   3.6186   3.6246   3.6329   3.7479
     3.8403   3.8541   3.8885   3.9159   3.9511   4.0040   4.0485   4.0743
     4.1142   4.1719   4.1997   4.2316   4.2513   4.2658   4.3982   4.4928
     4.5108   4.5538   4.6122   4.6295   4.6973   4.7031   4.7221   4.7886
     4.8004   4.8621   4.9327   4.9431   4.9840   4.9989   5.0387   5.0829
     5.0847   5.1368

          k =-0.4375 0.7578 0.2308 ( 96082 PWs)   bands (ev):

  -114.1684-114.1684-114.1684-114.1683 -71.6407 -71.6407 -71.6407 -71.6407
   -71.6406 -71.6406 -71.6405 -71.6405 -71.4682 -71.4682 -71.4682 -71.4681
   -18.6396 -18.6395 -18.5778 -18.5438 -17.7405 -17.7372 -17.7371 -17.7347
   -17.3229 -17.3120 -17.3083 -17.3077 -17.1658 -17.1651 -17.0660 -17.0349
   -17.0293 -17.0293 -17.0283 -17.0283 -17.0260 -17.0259 -17.0208 -17.0173
   -16.9859 -16.9858 -16.9392 -16.8711 -16.1864 -16.1065 -15.9338 -15.9335
   -15.9311 -15.8389 -15.7203 -15.7162 -15.4829 -15.4156 -15.2648 -15.2605
   -15.2022 -15.1532 -15.0938 -15.0912 -12.6548 -12.6547 -12.4155 -12.2831
   -10.9568 -10.9567 -10.7245 -10.5712  -9.4493  -9.4489  -9.2852  -9.1343
    -8.7840  -8.7621  -8.7549  -8.6761  -8.4211  -8.3597  -8.3487  -8.3273
    -8.2976  -8.2523  -8.1711  -8.1709  -7.6077  -7.6069  -7.5945  -7.4288
    -7.0634  -7.0460  -6.9325  -6.9172  -6.3198  -6.2668  -6.1987  -6.1586
    -6.1458  -6.1456  -6.0376  -6.0207  -5.8462  -5.8176  -5.7828  -5.7532
    -5.7028  -5.6704  -5.6533  -5.6410  -5.5256  -5.5088  -5.4263  -5.3925
    -5.3442  -5.3322  -5.2876  -5.2677  -4.9879  -4.9645  -4.9249  -4.9071
    -4.7053  -4.6689  -4.6460  -4.6216  -4.5485  -4.5404  -4.5123  -4.5017
    -4.3294  -4.3220  -4.2922  -4.2526  -3.9889  -3.9879  -3.9833  -3.9627
    -3.9033  -3.8886  -3.8701  -3.8396  -3.8368  -3.8299  -3.8049  -3.7232
    -3.6589  -3.6498  -3.6185  -3.6015  -3.5353  -3.5003  -3.4383  -3.4154
    -3.2876  -3.2665  -3.2482  -3.0782  -0.9146  -0.8144  -0.7623  -0.7609
    -0.2434  -0.0778   0.0212   0.0227   0.0319   0.2823   0.3203   0.4355
     0.4685   0.4972   0.5146   0.5423   0.5475   0.6169   0.7073   0.7691
     0.8632   0.9221   0.9907   1.0586   1.2523   1.4749   1.5972   1.6076
     1.7394   1.7641   1.7913   1.8066   2.0684   2.0754   2.0942   2.1476
     2.5581   2.5614   2.5632   2.6561   2.7145   2.7226   2.8362   2.8415
     2.8610   2.8985   2.9952   3.0371   3.0556   3.0601   3.2115   3.2138
     3.2380   3.4176   3.4241   3.4618   3.5096   3.6299   3.6860   3.7009
     3.7416   3.7921   3.8585   3.8881   3.9969   4.1063   4.1406   4.1776
     4.2009   4.2023   4.2621   4.3058   4.3383   4.3998   4.4413   4.4614
     4.4693   4.5329   4.6173   4.6842   4.6874   4.7352   4.7724   4.8122
     4.8236   4.9093   4.9598   4.9667   5.0512   5.1090   5.1161   5.1198
     5.1222   5.1368

          k = 0.8750 0.0000-0.2308 ( 96082 PWs)   bands (ev):

  -114.1684-114.1684-114.1684-114.1683 -71.6407 -71.6407 -71.6407 -71.6407
   -71.6406 -71.6406 -71.6405 -71.6405 -71.4682 -71.4682 -71.4682 -71.4681
   -18.6396 -18.6395 -18.5778 -18.5438 -17.7406 -17.7371 -17.7371 -17.7347
   -17.3229 -17.3120 -17.3083 -17.3078 -17.1657 -17.1651 -17.0660 -17.0349
   -17.0293 -17.0293 -17.0283 -17.0283 -17.0260 -17.0259 -17.0208 -17.0173
   -16.9858 -16.9858 -16.9392 -16.8711 -16.1863 -16.1064 -15.9338 -15.9336
   -15.9312 -15.8389 -15.7202 -15.7162 -15.4829 -15.4156 -15.2648 -15.2605
   -15.2022 -15.1532 -15.0937 -15.0911 -12.6548 -12.6547 -12.4155 -12.2831
   -10.9568 -10.9567 -10.7245 -10.5712  -9.4493  -9.4489  -9.2852  -9.1343
    -8.7841  -8.7621  -8.7549  -8.6762  -8.4211  -8.3597  -8.3488  -8.3273
    -8.2976  -8.2523  -8.1710  -8.1709  -7.6077  -7.6069  -7.5945  -7.4288
    -7.0634  -7.0460  -6.9325  -6.9172  -6.3198  -6.2668  -6.1987  -6.1586
    -6.1458  -6.1457  -6.0375  -6.0207  -5.8461  -5.8175  -5.7828  -5.7532
    -5.7029  -5.6703  -5.6533  -5.6411  -5.5257  -5.5089  -5.4263  -5.3925
    -5.3441  -5.3321  -5.2875  -5.2677  -4.9878  -4.9643  -4.9249  -4.9071
    -4.7053  -4.6689  -4.6460  -4.6215  -4.5485  -4.5404  -4.5123  -4.5017
    -4.3294  -4.3220  -4.2923  -4.2526  -3.9889  -3.9879  -3.9833  -3.9627
    -3.9033  -3.8886  -3.8702  -3.8396  -3.8369  -3.8299  -3.8049  -3.7231
    -3.6589  -3.6498  -3.6185  -3.6015  -3.5352  -3.5002  -3.4384  -3.4155
    -3.2875  -3.2665  -3.2482  -3.0782  -0.9145  -0.8143  -0.7623  -0.7609
    -0.2434  -0.0778   0.0212   0.0227   0.0320   0.2822   0.3202   0.4355
     0.4686   0.4972   0.5146   0.5423   0.5475   0.6169   0.7073   0.7691
     0.8633   0.9221   0.9907   1.0586   1.2523   1.4749   1.5972   1.6075
     1.7394   1.7642   1.7912   1.8065   2.0686   2.0754   2.0942   2.1476
     2.5582   2.5615   2.5633   2.6561   2.7145   2.7226   2.8363   2.8414
     2.8611   2.8986   2.9951   3.0369   3.0556   3.0602   3.2115   3.2138
     3.2378   3.4176   3.4240   3.4618   3.5096   3.6299   3.6859   3.7009
     3.7416   3.7921   3.8584   3.8881   3.9969   4.1063   4.1408   4.1776
     4.2009   4.2023   4.2621   4.3059   4.3383   4.3998   4.4414   4.4614
     4.4694   4.5330   4.6174   4.6842   4.6874   4.7352   4.7724   4.8123
     4.8236   4.9093   4.9598   4.9667   5.0509   5.1103   5.1125   5.1185
     5.1224   5.1370

          k =-0.4375-0.2526 0.2308 ( 96066 PWs)   bands (ev):

  -114.1684-114.1684-114.1684-114.1683 -71.6407 -71.6407 -71.6407 -71.6407
   -71.6406 -71.6406 -71.6405 -71.6405 -71.4682 -71.4682 -71.4682 -71.4681
   -18.6587 -18.6263 -18.5575 -18.5574 -17.7403 -17.7387 -17.7385 -17.7328
   -17.3153 -17.3149 -17.3104 -17.3020 -17.2002 -17.1461 -17.0462 -17.0459
   -17.0296 -17.0293 -17.0283 -17.0283 -17.0274 -17.0247 -17.0187 -17.0186
   -16.9912 -16.9810 -16.9045 -16.9042 -16.1632 -16.1606 -15.9856 -15.8859
   -15.8818 -15.8670 -15.7250 -15.6926 -15.4620 -15.4590 -15.2989 -15.2098
   -15.1789 -15.1776 -15.1018 -15.0779 -12.7319 -12.6056 -12.3387 -12.3386
   -11.0208 -10.9161 -10.6397 -10.6395  -9.4862  -9.4293  -9.2158  -9.2130
    -8.7583  -8.7449  -8.7302  -8.7255  -8.3925  -8.3687  -8.3505  -8.3278
    -8.2754  -8.2571  -8.1475  -8.1451  -7.6911  -7.5635  -7.4947  -7.4926
    -7.0821  -7.0654  -6.9391  -6.9378  -6.3244  -6.3165  -6.1942  -6.1910
    -6.1760  -6.0900  -6.0551  -5.9745  -5.8478  -5.8276  -5.7772  -5.7718
    -5.6819  -5.6697  -5.6684  -5.6658  -5.5263  -5.4984  -5.4168  -5.3942
    -5.3618  -5.2826  -5.2648  -5.2468  -4.9864  -4.9804  -4.9564  -4.9009
    -4.6794  -4.6782  -4.6695  -4.6359  -4.5550  -4.5527  -4.5210  -4.5066
    -4.3176  -4.2929  -4.2664  -4.2645  -3.9959  -3.9886  -3.9666  -3.9630
    -3.9153  -3.8796  -3.8581  -3.8519  -3.8370  -3.8148  -3.7846  -3.7720
    -3.6657  -3.6635  -3.6352  -3.5871  -3.5113  -3.4551  -3.4405  -3.4145
    -3.3316  -3.2164  -3.1720  -3.1676  -0.8673  -0.8644  -0.8054  -0.7270
    -0.1532  -0.1479   0.0090   0.0557   0.1320   0.1513   0.3664   0.3880
     0.4668   0.4881   0.5036   0.5149   0.5798   0.6041   0.7727   0.8160
     0.8370   0.8692   1.0185   1.0339   1.3442   1.3563   1.5277   1.6116
     1.7571   1.7588   1.7819   1.8345   2.0735   2.0872   2.0928   2.1725
     2.5298   2.5647   2.5836   2.6279   2.6526   2.7555   2.7916   2.8107
     2.8563   2.9110   2.9877   3.0172   3.0932   3.1150   3.1276   3.2823
     3.3237   3.3553   3.4117   3.5376   3.6038   3.6091   3.6587   3.7414
     3.7520   3.8475   3.8520   3.8528   3.9564   3.9664   4.1434   4.2037
     4.2243   4.2540   4.3010   4.3286   4.3593   4.3599   4.3634   4.4591
     4.4613   4.5030   4.6127   4.6687   4.7439   4.7864   4.8129   4.8328
     4.8773   4.8894   4.9175   4.9696   4.9729   5.0097   5.0436   5.0613
     5.0916   5.1730

          k = 0.0000-0.5052-0.2308 ( 96066 PWs)   bands (ev):

  -114.1684-114.1684-114.1684-114.1683 -71.6407 -71.6407 -71.6407 -71.6407
   -71.6406 -71.6406 -71.6405 -71.6405 -71.4682 -71.4682 -71.4682 -71.4681
   -18.6587 -18.6263 -18.5575 -18.5574 -17.7403 -17.7387 -17.7386 -17.7328
   -17.3153 -17.3149 -17.3105 -17.3020 -17.2002 -17.1461 -17.0462 -17.0459
   -17.0296 -17.0293 -17.0283 -17.0283 -17.0274 -17.0247 -17.0187 -17.0186
   -16.9912 -16.9810 -16.9045 -16.9042 -16.1631 -16.1605 -15.9857 -15.8859
   -15.8818 -15.8671 -15.7250 -15.6926 -15.4620 -15.4590 -15.2989 -15.2098
   -15.1789 -15.1776 -15.1018 -15.0778 -12.7319 -12.6055 -12.3387 -12.3387
   -11.0209 -10.9161 -10.6396 -10.6395  -9.4861  -9.4293  -9.2157  -9.2130
    -8.7582  -8.7449  -8.7302  -8.7255  -8.3926  -8.3687  -8.3506  -8.3278
    -8.2754  -8.2571  -8.1475  -8.1451  -7.6912  -7.5635  -7.4947  -7.4926
    -7.0821  -7.0654  -6.9391  -6.9377  -6.3244  -6.3165  -6.1942  -6.1910
    -6.1760  -6.0900  -6.0551  -5.9745  -5.8477  -5.8275  -5.7772  -5.7718
    -5.6819  -5.6698  -5.6684  -5.6659  -5.5264  -5.4986  -5.4168  -5.3942
    -5.3617  -5.2825  -5.2648  -5.2468  -4.9863  -4.9803  -4.9564  -4.9009
    -4.6794  -4.6782  -4.6694  -4.6359  -4.5550  -4.5527  -4.5209  -4.5065
    -4.3177  -4.2929  -4.2664  -4.2645  -3.9959  -3.9886  -3.9666  -3.9630
    -3.9154  -3.8796  -3.8581  -3.8520  -3.8370  -3.8148  -3.7846  -3.7720
    -3.6657  -3.6635  -3.6353  -3.5870  -3.5113  -3.4552  -3.4404  -3.4146
    -3.3316  -3.2164  -3.1720  -3.1675  -0.8672  -0.8643  -0.8054  -0.7271
    -0.1532  -0.1479   0.0091   0.0558   0.1320   0.1513   0.3663   0.3880
     0.4668   0.4881   0.5036   0.5149   0.5798   0.6040   0.7728   0.8161
     0.8370   0.8693   1.0185   1.0339   1.3442   1.3563   1.5276   1.6115
     1.7571   1.7589   1.7817   1.8344   2.0736   2.0874   2.0928   2.1726
     2.5299   2.5648   2.5836   2.6280   2.6526   2.7555   2.7915   2.8108
     2.8563   2.9112   2.9877   3.0171   3.0931   3.1150   3.1276   3.2823
     3.3236   3.3552   3.4116   3.5376   3.6038   3.6091   3.6586   3.7412
     3.7520   3.8475   3.8520   3.8528   3.9564   3.9664   4.1435   4.2038
     4.2243   4.2539   4.3011   4.3287   4.3593   4.3599   4.3634   4.4592
     4.4614   4.5030   4.6128   4.6688   4.7439   4.7865   4.8128   4.8328
     4.8773   4.8893   4.9175   4.9695   4.9729   5.0097   5.0437   5.0616
     5.0917   5.1896

     the Fermi energy is    -1.9838 ev
     (compare with:    -2.0045 eV, computed in scf)

     Writing all to output data dir ./test.save/ :
     XML data file, pseudopotentials, collected wavefunctions
 
     init_run     :      0.98s CPU      1.13s WALL (       1 calls)
     electrons    :  22703.24s CPU  22843.65s WALL (       1 calls)

     Called by init_run:
     wfcinit      :      0.00s CPU      0.00s WALL (       1 calls)
     potinit      :      0.05s CPU      0.09s WALL (       1 calls)
     hinit0       :      0.06s CPU      0.07s WALL (       1 calls)

     Called by electrons:
     c_bands      :  22703.24s CPU  22843.63s WALL (       1 calls)
     v_of_rho     :      0.04s CPU      0.04s WALL (       1 calls)
     newd         :      0.25s CPU      0.33s WALL (       1 calls)

     Called by c_bands:
     init_us_2    :      0.87s CPU      0.89s WALL (      96 calls)
     ccgdiagg     :  22551.07s CPU  22688.40s WALL (     576 calls)
     wfcrot       :    150.63s CPU    152.29s WALL (     576 calls)

     Called by *cgdiagg:
     h_psi        :   9145.57s CPU   9206.68s WALL ( 1699156 calls)
     s_psi        :   7158.03s CPU   7201.30s WALL ( 3397736 calls)

     Called by h_psi:
     h_psi:calbec :   4177.96s CPU   4206.28s WALL ( 1699156 calls)
     vloc_psi     :   1289.69s CPU   1301.17s WALL ( 1699156 calls)
     add_vuspsi   :   3656.63s CPU   3679.38s WALL ( 1699156 calls)
     hs_1psi      :  12625.34s CPU  12705.44s WALL ( 1698580 calls)
     s_1psi       :   7394.89s CPU   7435.77s WALL ( 1698580 calls)

     General routines
     calbec       :   7976.73s CPU   8028.91s WALL ( 3397736 calls)
     fft          :      0.03s CPU      0.03s WALL (      13 calls)
     ffts         :      0.00s CPU      0.00s WALL (       1 calls)
     fftw         :    771.10s CPU    777.94s WALL ( 3685160 calls)
     interpolate  :      0.00s CPU      0.01s WALL (       1 calls)
     davcio       :      0.05s CPU      1.58s WALL (     192 calls)
 
     Parallel routines
 
     PWSCF        :  22718.74s CPU  22869.75s WALL

 
   This run was terminated on:  17:56:25  15Dec2025            

=------------------------------------------------------------------------------=
   JOB DONE.
=------------------------------------------------------------------------------=
