
     Program PWSCF v.7.3.1 starts on 15Dec2025 at 11:19:44 

     This program is part of the open-source Quantum ESPRESSO suite
     for quantum simulation of materials; please cite
         "P. Giannozzi et al., J. Phys.:Condens. Matter 21 395502 (2009);
         "P. Giannozzi et al., J. Phys.:Condens. Matter 29 465901 (2017);
         "P. Giannozzi et al., J. Chem. Phys. 152 154105 (2020);
          URL http://www.quantum-espresso.org", 
     in publications or presentations arising from this work. More details at
     http://www.quantum-espresso.org/quote

     Parallel version (MPI & OpenMP), running on      64 processor cores
     Number of MPI processes:                64
     Threads/MPI process:                     1

     MPI processes distributed on     1 nodes
     499901 MiB available memory on the printing compute node when the environment starts
 
     Waiting for input...
     Reading input from standard input
Warning: card &CELL ignored
Warning: card   PRESS = 0.0, ignored
Warning: card / ignored

     Current dimensions of program PWSCF are:
     Max number of different atomic species (ntypx) = 10
     Max number of k-points (npk) =  40000
     Max angular momentum in pseudopotentials (lmaxx) =  4

     IMPORTANT: XC functional enforced from input :
     Exchange-correlation= PBE
                           (   1   4   3   4   0   0   0)
     Any further DFT definition will be discarded
     Please, verify this is what you really want

 
     R & G space division:  proc/nbgrp/npool/nimage =      64
     Subspace diagonalization in iterative solution of the eigenvalue problem:
     one sub-group per band group will be used
     ELPA distributed-memory algorithm (size of sub-group:  3*  3 procs)

 
     Parallelization info
     --------------------
     sticks:   dense  smooth     PW     G-vecs:    dense   smooth      PW
     Min         180      90     24                33956    12002    1671
     Max         181      91     26                33969    12012    1680
     Sum       11557    5773   1555              2173495   768463  107317
 
     Using Slab Decomposition
 


     bravais-lattice index     =            4
     lattice parameter (alat)  =      22.8869  a.u.
     unit-cell volume          =   22488.0312 (a.u.)^3
     number of atoms/cell      =           40
     number of atomic types    =            4
     number of electrons       =       312.00
     number of Kohn-Sham states=          250
     kinetic-energy cutoff     =      40.0000  Ry
     charge density cutoff     =     320.0000  Ry
     scf convergence threshold =      1.0E-08
     mixing beta               =       0.3000
     number of iterations used =            8  plain     mixing
     Exchange-correlation= PBE
                           (   1   4   3   4   0   0   0)

     celldm(1)=  22.886890  celldm(2)=   0.000000  celldm(3)=   2.166010
     celldm(4)=   0.000000  celldm(5)=   0.000000  celldm(6)=   0.000000

     crystal axes: (cart. coord. in units of alat)
               a(1) = (   1.000000   0.000000   0.000000 )  
               a(2) = (  -0.500000   0.866025   0.000000 )  
               a(3) = (   0.000000   0.000000   2.166010 )  

     reciprocal axes: (cart. coord. in units 2 pi/alat)
               b(1) = (  1.000000  0.577350  0.000000 )  
               b(2) = (  0.000000  1.154701  0.000000 )  
               b(3) = (  0.000000  0.000000  0.461678 )  


     PseudoPot. # 1 for Cu read from file:
     ./cu_pbe_v1.2.uspp.F.UPF
     MD5 check sum: 6e991ff952a84172a2a52a1c1e996048
     Pseudo is Ultrasoft + core correction, Zval = 19.0
     Generated by new atomic code, or converted to UPF format
     Using radial grid of  867 points,  6 beta functions with: 
                l(1) =   0
                l(2) =   0
                l(3) =   1
                l(4) =   1
                l(5) =   2
                l(6) =   2
     Q(r) pseudized with  8 coefficients,  rinner =    1.150   1.150   1.150
                                                       1.150   1.150

     PseudoPot. # 2 for In read from file:
     ./in_pbe_v1.4.uspp.F.UPF
     MD5 check sum: 90777abd96fbb83f2e67db2a40c566b9
     Pseudo is Ultrasoft + core correction, Zval = 13.0
     Generated by new atomic code, or converted to UPF format
     Using radial grid of  889 points,  6 beta functions with: 
                l(1) =   0
                l(2) =   0
                l(3) =   1
                l(4) =   1
                l(5) =   2
                l(6) =   2
     Q(r) pseudized with  6 coefficients,  rinner =    1.400   1.400   1.400
                                                       1.400   1.400

     PseudoPot. # 3 for P  read from file:
     ./p_pbe_v1.5.uspp.F.UPF
     MD5 check sum: eb82b2c351da08c5f5f8709277dc7ee5
     Pseudo is Ultrasoft + core correction, Zval =  5.0
     Generated by new atomic code, or converted to UPF format
     Using radial grid of  903 points,  6 beta functions with: 
                l(1) =   0
                l(2) =   0
                l(3) =   1
                l(4) =   1
                l(5) =   2
                l(6) =   2
     Q(r) pseudized with  8 coefficients,  rinner =    1.300   1.300   1.300
                                                       1.300   1.300

     PseudoPot. # 4 for S  read from file:
     ./s_pbe_v1.4.uspp.F.UPF
     MD5 check sum: 88d86576ff6df21479756cfb9bdac1df
     Pseudo is Ultrasoft + core correction, Zval =  6.0
     Generated by new atomic code, or converted to UPF format
     Using radial grid of  907 points,  6 beta functions with: 
                l(1) =   0
                l(2) =   0
                l(3) =   1
                l(4) =   1
                l(5) =   2
                l(6) =   2
     Q(r) pseudized with  8 coefficients,  rinner =    1.300   1.300   1.300
                                                       1.300   1.300

     atomic species   valence    mass     pseudopotential
     Cu               19.00    63.54600     Cu( 1.00)
     In               13.00   114.81800     In( 1.00)
     P                 5.00    30.97400     P ( 1.00)
     S                 6.00    32.06500     S ( 1.00)

     No symmetry found



   Cartesian axes

     site n.     atom                  positions (alat units)
         1        Cu     tau(   1) = (   0.2498663   0.1443831   1.1978922  )
         2        Cu     tau(   2) = (  -0.0000672   0.5773736   1.1979169  )
         3        Cu     tau(   3) = (   0.7499644   0.1443517   1.1979123  )
         4        Cu     tau(   4) = (   0.4999466   0.5774254   1.1978887  )
         5        In     tau(   5) = (   0.9999197   0.0000468   1.0672493  )
         6        In     tau(   6) = (   0.7499108   0.4330605   1.0672255  )
         7        In     tau(   7) = (   0.4999235   0.0000479   1.0672231  )
         8        In     tau(   8) = (   0.2499270   0.4330513   1.0672283  )
         9        P      tau(   9) = (  -0.0000809   0.2887227   0.9908135  )
        10        P      tau(  10) = (  -0.2500750   0.7217381   0.9908071  )
        11        P      tau(  11) = (   0.4999255   0.2887218   0.9907940  )
        12        P      tau(  12) = (   0.2499241   0.7217304   0.9908125  )
        13        P      tau(  13) = (  -0.0000850   0.2887225   1.1767547  )
        14        P      tau(  14) = (  -0.2500581   0.7217354   1.1767473  )
        15        P      tau(  15) = (   0.4999306   0.2887106   1.1767325  )
        16        P      tau(  16) = (   0.2499222   0.7217109   1.1767527  )
        17        S      tau(  17) = (  -0.0887860   0.1535944   0.9472668  )
        18        S      tau(  18) = (  -0.3387891   0.5866155   0.9472592  )
        19        S      tau(  19) = (   0.4112183   0.1535966   0.9472430  )
        20        S      tau(  20) = (   0.1612157   0.5866062   0.9472582  )
        21        S      tau(  21) = (   0.4113013   0.7124836   0.9472623  )
        22        S      tau(  22) = (   0.6613012   0.2794689   0.9472401  )
        23        S      tau(  23) = (  -0.0887006   0.7124776   0.9472488  )
        24        S      tau(  24) = (   0.1612965   0.2794566   0.9472653  )
        25        S      tau(  25) = (  -0.3227505   0.8661250   0.9472706  )
        26        S      tau(  26) = (  -0.0727457   0.4331126   0.9472691  )
        27        S      tau(  27) = (   0.1772624   0.8661242   0.9472745  )
        28        S      tau(  28) = (   0.4272573   0.4331134   0.9472598  )
        29        S      tau(  29) = (   0.3419158   0.8551497   1.2285439  )
        30        S      tau(  30) = (   0.5918981   0.4221770   1.2285023  )
        31        S      tau(  31) = (  -0.1580896   0.8552029   1.2285008  )
        32        S      tau(  32) = (   0.0919167   0.4221594   1.2285280  )
        33        S      tau(  33) = (   0.0694755   0.1423284   1.2285350  )
        34        S      tau(  34) = (  -0.1804839   0.5753431   1.2285096  )
        35        S      tau(  35) = (   0.5695365   0.1423308   1.2284919  )
        36        S      tau(  36) = (   0.3195240   0.5753273   1.2285012  )
        37        S      tau(  37) = (  -0.4116178   0.7346756   1.2285323  )
        38        S      tau(  38) = (  -0.1616507   0.3016527   1.2285132  )
        39        S      tau(  39) = (   0.0883573   0.7346491   1.2285147  )
        40        S      tau(  40) = (   0.3383626   0.3016256   1.2285013  )

     -------------------------------------------------
     Parameters for Dispersion (Grimme-D2) Correction:
     -------------------------------------------------
       atom      VdW radius       C_6     

        Cu         2.952        374.666
        In         3.160       1294.678
        P          3.222        271.980
        S          3.180        193.230

     number of k points=    54  Gaussian smearing, width (Ry)=  0.0100
                       cart. coord. in units 2pi/alat
        k(    1) = (   0.0833333   0.1443376  -0.2308392), wk =   0.0370370
        k(    2) = (   0.0833333   0.3367877  -0.2308392), wk =   0.0370370
        k(    3) = (   0.0833333   0.5292377  -0.2308392), wk =   0.0370370
        k(    4) = (   0.0833333  -0.4330127  -0.2308392), wk =   0.0370370
        k(    5) = (   0.0833333  -0.2405626  -0.2308392), wk =   0.0370370
        k(    6) = (   0.0833333  -0.0481125  -0.2308392), wk =   0.0370370
        k(    7) = (   0.2500000   0.4330127  -0.2308392), wk =   0.0370370
        k(    8) = (   0.2500000   0.6254628  -0.2308392), wk =   0.0370370
        k(    9) = (   0.2500000  -0.3367877  -0.2308392), wk =   0.0370370
        k(   10) = (   0.2500000  -0.1443376  -0.2308392), wk =   0.0370370
        k(   11) = (   0.4166667   0.7216878  -0.2308392), wk =   0.0370370
        k(   12) = (   0.4166667  -0.2405626  -0.2308392), wk =   0.0370370
        k(   13) = (  -0.0833333   0.1443376   0.2308392), wk =   0.0370370
        k(   14) = (   0.1666667   0.0000000  -0.2308392), wk =   0.0370370
        k(   15) = (  -0.0833333   0.3367877   0.2308392), wk =   0.0370370
        k(   16) = (  -0.2500000   0.2405626  -0.2308392), wk =   0.0370370
        k(   17) = (   0.3333333   0.0962250  -0.2308392), wk =   0.0370370
        k(   18) = (  -0.2500000  -0.2405626   0.2308392), wk =   0.0370370
        k(   19) = (   0.3333333  -0.0962250   0.2308392), wk =   0.0370370
        k(   20) = (  -0.0833333   0.5292377   0.2308392), wk =   0.0370370
        k(   21) = (  -0.4166667   0.3367877  -0.2308392), wk =   0.0370370
        k(   22) = (   0.5000000   0.1924501  -0.2308392), wk =   0.0370370
        k(   23) = (  -0.4166667  -0.3367877   0.2308392), wk =   0.0370370
        k(   24) = (   0.5000000  -0.1924501   0.2308392), wk =   0.0370370
        k(   25) = (  -0.0833333  -0.4330127   0.2308392), wk =   0.0370370
        k(   26) = (   0.4166667  -0.1443376  -0.2308392), wk =   0.0370370
        k(   27) = (  -0.3333333  -0.2886751  -0.2308392), wk =   0.0370370
        k(   28) = (   0.4166667   0.1443376   0.2308392), wk =   0.0370370
        k(   29) = (  -0.3333333   0.2886751   0.2308392), wk =   0.0370370
        k(   30) = (  -0.0833333  -0.2405626   0.2308392), wk =   0.0370370
        k(   31) = (   0.2500000  -0.0481125  -0.2308392), wk =   0.0370370
        k(   32) = (  -0.1666667  -0.1924501  -0.2308392), wk =   0.0370370
        k(   33) = (   0.2500000   0.0481125   0.2308392), wk =   0.0370370
        k(   34) = (  -0.1666667   0.1924501   0.2308392), wk =   0.0370370
        k(   35) = (  -0.0833333  -0.0481125   0.2308392), wk =   0.0370370
        k(   36) = (   0.0000000  -0.0962250  -0.2308392), wk =   0.0370370
        k(   37) = (  -0.2500000   0.4330127   0.2308392), wk =   0.0370370
        k(   38) = (   0.5000000   0.0000000  -0.2308392), wk =   0.0370370
        k(   39) = (  -0.2500000   0.6254628   0.2308392), wk =   0.0370370
        k(   40) = (  -0.4166667   0.5292377  -0.2308392), wk =   0.0370370
        k(   41) = (   0.6666667   0.0962250  -0.2308392), wk =   0.0370370
        k(   42) = (  -0.4166667  -0.5292377   0.2308392), wk =   0.0370370
        k(   43) = (   0.6666667  -0.0962250   0.2308392), wk =   0.0370370
        k(   44) = (  -0.2500000  -0.3367877   0.2308392), wk =   0.0370370
        k(   45) = (   0.4166667   0.0481125  -0.2308392), wk =   0.0370370
        k(   46) = (  -0.1666667  -0.3849002  -0.2308392), wk =   0.0370370
        k(   47) = (   0.4166667  -0.0481125   0.2308392), wk =   0.0370370
        k(   48) = (  -0.1666667   0.3849002   0.2308392), wk =   0.0370370
        k(   49) = (  -0.2500000  -0.1443376   0.2308392), wk =   0.0370370
        k(   50) = (   0.0000000  -0.2886751  -0.2308392), wk =   0.0370370
        k(   51) = (  -0.4166667   0.7216878   0.2308392), wk =   0.0370370
        k(   52) = (   0.8333333   0.0000000  -0.2308392), wk =   0.0370370
        k(   53) = (  -0.4166667  -0.2405626   0.2308392), wk =   0.0370370
        k(   54) = (   0.0000000  -0.4811252  -0.2308392), wk =   0.0370370

     Dense  grid:  2173495 G-vectors     FFT dimensions: ( 135, 135, 288)

     Smooth grid:   768463 G-vectors     FFT dimensions: (  96,  96, 200)

     Estimated max dynamical RAM per process >     469.31 MB

     Estimated total dynamical RAM >      29.33 GB

     Initial potential from superposition of free atoms

     starting charge     301.9978, renormalised to     312.0000

     negative rho (up, down):  5.533E-03 0.000E+00
     Starting wfcs are  216 randomized atomic wfcs +   34 random wfcs

     total cpu time spent up to now is       17.9 secs

     per-process dynamical memory:    98.5 Mb

     Self-consistent Calculation

     iteration #  1     ecut=    40.00 Ry     beta= 0.30
     Davidson diagonalization with overlap
     ethr =  1.00E-02,  avg # of iterations =  7.6

     negative rho (up, down):  2.919E-03 0.000E+00

     total cpu time spent up to now is      104.5 secs

     total energy              =   -2852.32325688 Ry
     estimated scf accuracy    <       4.10146414 Ry

     iteration #  2     ecut=    40.00 Ry     beta= 0.30
     Davidson diagonalization with overlap
     ethr =  1.31E-03,  avg # of iterations =  2.0

     negative rho (up, down):  1.902E-03 0.000E+00

     total cpu time spent up to now is      156.6 secs

     total energy              =   -2852.75062448 Ry
     estimated scf accuracy    <       0.56135209 Ry

     iteration #  3     ecut=    40.00 Ry     beta= 0.30
     Davidson diagonalization with overlap
     ethr =  1.80E-04,  avg # of iterations = 10.2

     negative rho (up, down):  1.668E-03 0.000E+00

     total cpu time spent up to now is      241.1 secs

     total energy              =   -2852.79796446 Ry
     estimated scf accuracy    <       0.16679851 Ry

     iteration #  4     ecut=    40.00 Ry     beta= 0.30
     Davidson diagonalization with overlap
     ethr =  5.35E-05,  avg # of iterations =  3.1

     negative rho (up, down):  2.384E-03 0.000E+00

     total cpu time spent up to now is      295.6 secs

     total energy              =   -2852.80985945 Ry
     estimated scf accuracy    <       0.05319318 Ry

     iteration #  5     ecut=    40.00 Ry     beta= 0.30
     Davidson diagonalization with overlap
     ethr =  1.70E-05,  avg # of iterations =  7.8

     negative rho (up, down):  3.119E-03 0.000E+00

     total cpu time spent up to now is      353.3 secs

     total energy              =   -2852.81248861 Ry
     estimated scf accuracy    <       0.00992251 Ry

     iteration #  6     ecut=    40.00 Ry     beta= 0.30
     Davidson diagonalization with overlap
     c_bands:  1 eigenvalues not converged
     c_bands:  1 eigenvalues not converged
     c_bands:  1 eigenvalues not converged
     c_bands:  1 eigenvalues not converged
     c_bands:  1 eigenvalues not converged
     c_bands:  1 eigenvalues not converged
     c_bands:  1 eigenvalues not converged
     ethr =  3.18E-06,  avg # of iterations = 15.6

     negative rho (up, down):  3.035E-03 0.000E+00

     total cpu time spent up to now is      445.0 secs

     total energy              =   -2852.81308637 Ry
     estimated scf accuracy    <       0.00159774 Ry

     iteration #  7     ecut=    40.00 Ry     beta= 0.30
     Davidson diagonalization with overlap
     ethr =  5.12E-07,  avg # of iterations =  7.1

     negative rho (up, down):  2.951E-03 0.000E+00

     total cpu time spent up to now is      507.1 secs

     total energy              =   -2852.81343584 Ry
     estimated scf accuracy    <       0.00041619 Ry

     iteration #  8     ecut=    40.00 Ry     beta= 0.30
     Davidson diagonalization with overlap
     ethr =  1.33E-07,  avg # of iterations =  2.0

     negative rho (up, down):  2.917E-03 0.000E+00

     total cpu time spent up to now is      557.6 secs

     total energy              =   -2852.81349433 Ry
     estimated scf accuracy    <       0.00005460 Ry

     iteration #  9     ecut=    40.00 Ry     beta= 0.30
     Davidson diagonalization with overlap
     ethr =  1.75E-08,  avg # of iterations =  3.2

     negative rho (up, down):  2.909E-03 0.000E+00

     total cpu time spent up to now is      616.0 secs

     total energy              =   -2852.81350923 Ry
     estimated scf accuracy    <       0.00000615 Ry

     iteration # 10     ecut=    40.00 Ry     beta= 0.30
     Davidson diagonalization with overlap
     ethr =  1.97E-09,  avg # of iterations =  5.0

     negative rho (up, down):  2.923E-03 0.000E+00

     total cpu time spent up to now is      690.0 secs

     total energy              =   -2852.81351331 Ry
     estimated scf accuracy    <       0.00000090 Ry

     iteration # 11     ecut=    40.00 Ry     beta= 0.30
     Davidson diagonalization with overlap
     ethr =  2.89E-10,  avg # of iterations =  6.5

     negative rho (up, down):  2.946E-03 0.000E+00

     total cpu time spent up to now is      756.1 secs

     total energy              =   -2852.81351409 Ry
     estimated scf accuracy    <       0.00000021 Ry

     iteration # 12     ecut=    40.00 Ry     beta= 0.30
     Davidson diagonalization with overlap
     ethr =  6.85E-11,  avg # of iterations =  3.1

     negative rho (up, down):  2.969E-03 0.000E+00

     total cpu time spent up to now is      808.3 secs

     total energy              =   -2852.81351434 Ry
     estimated scf accuracy    <       0.00000010 Ry

     iteration # 13     ecut=    40.00 Ry     beta= 0.30
     Davidson diagonalization with overlap
     ethr =  3.14E-11,  avg # of iterations =  2.2

     negative rho (up, down):  2.988E-03 0.000E+00

     total cpu time spent up to now is      857.2 secs

     total energy              =   -2852.81351447 Ry
     estimated scf accuracy    <       0.00000002 Ry

     iteration # 14     ecut=    40.00 Ry     beta= 0.30
     Davidson diagonalization with overlap
     ethr =  5.53E-12,  avg # of iterations =  3.7

     negative rho (up, down):  3.042E-03 0.000E+00

     total cpu time spent up to now is      914.8 secs

     End of self-consistent calculation

          k = 0.0833 0.1443-0.2308 ( 95992 PWs)   bands (ev):

  -114.1686-114.1685-114.1684-114.1684 -71.6408 -71.6408 -71.6408 -71.6408
   -71.6407 -71.6407 -71.6406 -71.6406 -71.4684 -71.4683 -71.4683 -71.4682
   -18.7143 -18.5622 -18.5620 -18.5534 -17.7486 -17.7484 -17.7470 -17.7116
   -17.3208 -17.3058 -17.2849 -17.2809 -17.2804 -17.0660 -17.0655 -17.0548
   -17.0306 -17.0305 -17.0304 -17.0301 -17.0300 -17.0174 -17.0173 -17.0165
   -16.9997 -16.9267 -16.9264 -16.9105 -16.2315 -16.2121 -16.2105 -15.8060
   -15.7842 -15.7807 -15.6517 -15.6299 -15.5015 -15.4834 -15.4801 -15.1566
   -15.1461 -15.1450 -15.0504 -15.0327 -12.9795 -12.3805 -12.3804 -12.3466
   -11.2014 -10.7073 -10.7072 -10.6684  -9.5848  -9.3291  -9.3282  -9.2994
    -8.6652  -8.6520  -8.6253  -8.5848  -8.5303  -8.3471  -8.3284  -8.3126
    -8.0665  -8.0523  -8.0489  -8.0020  -7.9232  -7.4579  -7.4084  -7.3943
    -7.2235  -7.2150  -7.2024  -7.1938  -6.4223  -6.4201  -6.4129  -6.1705
    -6.1633  -6.1509  -6.0870  -5.8615  -5.8552  -5.8493  -5.8155  -5.7759
    -5.7416  -5.6419  -5.6404  -5.6377  -5.4387  -5.4305  -5.4154  -5.4058
    -5.3902  -5.1549  -5.1425  -5.1315  -5.0031  -5.0005  -4.9956  -4.8078
    -4.7398  -4.7289  -4.7246  -4.6977  -4.6489  -4.6419  -4.6223  -4.6161
    -4.2721  -4.2669  -4.2606  -4.1039  -4.1023  -4.0886  -4.0113  -3.9475
    -3.9067  -3.8622  -3.8532  -3.8387  -3.8050  -3.7907  -3.7798  -3.7308
    -3.7064  -3.6941  -3.6486  -3.5912  -3.4015  -3.3817  -3.3763  -3.2347
    -3.2342  -3.1740  -3.0578  -2.9905  -1.1717  -0.8231  -0.7779  -0.7765
    -0.2184  -0.0117   0.0466   0.0622   0.1212   0.1559   0.1597   0.3305
     0.3762   0.3773   0.5309   0.5592   0.5634   0.5679   0.5721   0.8612
     0.9767   1.0083   1.0267   1.0968   1.3303   1.3599   1.3648   1.7487
     1.8176   1.8753   1.8767   1.8992   1.9742   2.2051   2.2239   2.2289
     2.4578   2.5392   2.5448   2.5598   2.5903   2.6256   2.7273   2.7676
     2.7745   2.8428   2.9193   3.0326   3.0533   3.0715   3.3171   3.3325
     3.4607   3.4903   3.6110   3.6142   3.6401   3.7111   3.7428   3.7876
     3.7969   3.8297   3.8774   3.8808   3.8879   3.9256   4.0175   4.0194
     4.0974   4.1273   4.1515   4.1734   4.1872   4.1945   4.2607   4.3773
     4.3913   4.4491   4.5080   4.5138   4.5801   4.6015   4.6666   4.7322
     4.8011   4.8196   4.9013   4.9274   4.9696   4.9965   5.0273   5.0526
     5.0973   5.1317

          k = 0.0833 0.3368-0.2308 ( 96032 PWs)   bands (ev):

  -114.1686-114.1685-114.1684-114.1684 -71.6408 -71.6408 -71.6408 -71.6408
   -71.6407 -71.6407 -71.6406 -71.6406 -71.4684 -71.4683 -71.4683 -71.4682
   -18.6900 -18.5898 -18.5675 -18.5494 -17.7456 -17.7439 -17.7407 -17.7224
   -17.3171 -17.3064 -17.2986 -17.2921 -17.2576 -17.0934 -17.0623 -17.0427
   -17.0301 -17.0297 -17.0293 -17.0293 -17.0291 -17.0209 -17.0188 -17.0169
   -16.9968 -16.9577 -16.9286 -16.8924 -16.2095 -16.1634 -16.1142 -15.8657
   -15.8227 -15.7592 -15.7466 -15.6595 -15.4920 -15.4483 -15.4029 -15.1774
   -15.1550 -15.1266 -15.1219 -15.0529 -12.8658 -12.4734 -12.3870 -12.3168
   -11.1225 -10.7962 -10.7030 -10.6215  -9.5420  -9.3664  -9.2977  -9.2252
    -8.7442  -8.6994  -8.6646  -8.6609  -8.4623  -8.3917  -8.3633  -8.3213
    -8.1805  -8.1468  -8.1018  -8.0955  -7.8191  -7.5326  -7.4396  -7.4348
    -7.1247  -7.0847  -7.0704  -7.0461  -6.3588  -6.3416  -6.3331  -6.1814
    -6.1798  -6.1116  -6.0515  -5.8823  -5.8514  -5.8492  -5.8154  -5.7875
    -5.6923  -5.6682  -5.6488  -5.6400  -5.4765  -5.4694  -5.4349  -5.4162
    -5.3936  -5.2245  -5.1942  -5.1872  -5.0055  -4.9962  -4.9933  -4.8493
    -4.7315  -4.7034  -4.6699  -4.6660  -4.6000  -4.5699  -4.5670  -4.5541
    -4.2714  -4.2513  -4.2463  -4.1323  -4.0664  -4.0312  -4.0213  -3.9581
    -3.9377  -3.8572  -3.8490  -3.8488  -3.8351  -3.7964  -3.7685  -3.7481
    -3.7156  -3.6750  -3.6649  -3.6266  -3.4388  -3.4190  -3.3805  -3.3698
    -3.2827  -3.2381  -3.1314  -3.0814  -0.9625  -0.8723  -0.8034  -0.7223
    -0.1248  -0.0846  -0.0412   0.0756   0.1183   0.2285   0.3088   0.3606
     0.3728   0.4715   0.4847   0.5156   0.5418   0.5967   0.6319   0.8376
     0.8740   0.9754   1.0076   1.0807   1.3033   1.3964   1.4336   1.6850
     1.7799   1.7866   1.8066   1.8459   2.0472   2.1688   2.1763   2.2327
     2.4841   2.5067   2.5551   2.5578   2.6667   2.6866   2.7190   2.8033
     2.8282   2.9031   3.0049   3.0424   3.0626   3.1529   3.2052   3.2536
     3.3442   3.5023   3.5321   3.5366   3.5474   3.6036   3.7103   3.7414
     3.7986   3.8551   3.8601   3.8847   3.9880   4.0335   4.0429   4.0953
     4.1190   4.1724   4.2103   4.2160   4.2676   4.2822   4.3433   4.4262
     4.4739   4.5762   4.5802   4.6252   4.6529   4.7124   4.7484   4.7791
     4.8463   4.8793   4.9033   4.9663   4.9934   5.0404   5.0425   5.0586
     5.0679   5.0912

          k = 0.0833 0.5292-0.2308 ( 96076 PWs)   bands (ev):

  -114.1686-114.1685-114.1684-114.1684 -71.6408 -71.6408 -71.6408 -71.6408
   -71.6407 -71.6407 -71.6406 -71.6406 -71.4684 -71.4683 -71.4683 -71.4682
   -18.6519 -18.6305 -18.5702 -18.5476 -17.7402 -17.7392 -17.7361 -17.7344
   -17.3201 -17.3124 -17.3096 -17.3047 -17.1878 -17.1512 -17.0581 -17.0378
   -17.0295 -17.0292 -17.0283 -17.0283 -17.0269 -17.0251 -17.0200 -17.0177
   -16.9895 -16.9826 -16.9279 -16.8814 -16.1815 -16.1270 -15.9690 -15.9163
   -15.8892 -15.8555 -15.7224 -15.7032 -15.4782 -15.4316 -15.2893 -15.2273
   -15.1943 -15.1624 -15.0980 -15.0838 -12.7042 -12.6205 -12.3872 -12.2994
   -10.9983 -10.9282 -10.6943 -10.5918  -9.4732  -9.4343  -9.2624  -9.1606
    -8.7650  -8.7640  -8.7399  -8.7044  -8.3804  -8.3801  -8.3448  -8.3263
    -8.3095  -8.2454  -8.1590  -8.1575  -7.6606  -7.5752  -7.5619  -7.4430
    -7.0716  -7.0531  -6.9391  -6.9260  -6.3254  -6.2908  -6.1912  -6.1781
    -6.1744  -6.1081  -6.0399  -5.9990  -5.8378  -5.8313  -5.7804  -5.7637
    -5.6975  -5.6677  -5.6581  -5.6502  -5.5216  -5.5173  -5.4061  -5.4030
    -5.3608  -5.2975  -5.2685  -5.2665  -4.9855  -4.9748  -4.9472  -4.8974
    -4.6953  -4.6634  -4.6509  -4.6421  -4.5530  -4.5451  -4.5103  -4.5097
    -4.3193  -4.3133  -4.2835  -4.2539  -3.9961  -3.9764  -3.9750  -3.9706
    -3.9161  -3.8731  -3.8564  -3.8547  -3.8449  -3.8191  -3.8022  -3.7314
    -3.6712  -3.6504  -3.6466  -3.5817  -3.5052  -3.4870  -3.4324  -3.4230
    -3.3294  -3.2339  -3.2208  -3.1072  -0.8995  -0.8315  -0.7878  -0.7385
    -0.2112  -0.1023   0.0138   0.0491   0.0619   0.2261   0.3424   0.4158
     0.4893   0.4909   0.4936   0.5238   0.5486   0.6234   0.7428   0.8180
     0.8215   0.9006   0.9951   1.0575   1.2810   1.4330   1.5605   1.6079
     1.7434   1.7659   1.7912   1.8147   2.0694   2.0820   2.1201   2.1312
     2.5400   2.5660   2.5669   2.6657   2.6780   2.7433   2.7944   2.8310
     2.8426   2.9195   3.0117   3.0316   3.0573   3.0951   3.1565   3.2491
     3.2613   3.4028   3.4561   3.4655   3.5171   3.6763   3.6960   3.7023
     3.7160   3.8181   3.8302   3.9127   3.9644   4.0571   4.1749   4.1934
     4.1953   4.2087   4.2620   4.3367   4.3767   4.3983   4.4143   4.4301
     4.4526   4.5132   4.6235   4.6903   4.6953   4.7363   4.7982   4.8057
     4.8281   4.9072   4.9933   4.9964   5.0274   5.0530   5.0597   5.0676
     5.1588   5.1649

          k = 0.0833-0.4330-0.2308 ( 96090 PWs)   bands (ev):

  -114.1686-114.1685-114.1684-114.1684 -71.6408 -71.6408 -71.6408 -71.6408
   -71.6407 -71.6407 -71.6406 -71.6406 -71.4684 -71.4683 -71.4683 -71.4682
   -18.6722 -18.6093 -18.5693 -18.5482 -17.7430 -17.7414 -17.7378 -17.7286
   -17.3148 -17.3141 -17.3081 -17.2980 -17.2239 -17.1196 -17.0589 -17.0397
   -17.0298 -17.0292 -17.0289 -17.0286 -17.0283 -17.0230 -17.0196 -17.0173
   -16.9939 -16.9722 -16.9278 -16.8858 -16.1906 -16.1451 -16.0429 -15.9007
   -15.8355 -15.8151 -15.7469 -15.6789 -15.4807 -15.4435 -15.3436 -15.1891
   -15.1735 -15.1571 -15.1154 -15.0663 -12.7880 -12.5419 -12.3874 -12.3055
   -11.0644 -10.8593 -10.6975 -10.6026  -9.5099  -9.3983  -9.2735  -9.1892
    -8.7637  -8.7542  -8.7092  -8.6529  -8.4407  -8.4160  -8.3439  -8.3090
    -8.2431  -8.2096  -8.1355  -8.1353  -7.7442  -7.5527  -7.5002  -7.4331
    -7.1003  -7.0763  -6.9738  -6.9656  -6.3444  -6.2967  -6.2577  -6.2039
    -6.1507  -6.1025  -6.0628  -5.9357  -5.8651  -5.8166  -5.7994  -5.7676
    -5.6853  -5.6696  -5.6624  -5.6567  -5.5124  -5.4546  -5.4463  -5.4001
    -5.3950  -5.2586  -5.2541  -5.2196  -4.9946  -4.9765  -4.9715  -4.8803
    -4.7130  -4.7098  -4.6410  -4.6309  -4.5666  -4.5599  -4.5466  -4.5207
    -4.2865  -4.2758  -4.2511  -4.2321  -4.0266  -4.0203  -3.9607  -3.9582
    -3.9240  -3.9051  -3.8597  -3.8389  -3.8166  -3.8141  -3.7807  -3.7640
    -3.6947  -3.6552  -3.6405  -3.6167  -3.4784  -3.4714  -3.3953  -3.3797
    -3.3403  -3.2445  -3.1615  -3.1118  -0.8934  -0.8631  -0.8164  -0.7192
    -0.1839  -0.0656  -0.0250   0.0537   0.0683   0.2646   0.3030   0.4168
     0.4235   0.4982   0.5012   0.5474   0.5627   0.5720   0.6603   0.7985
     0.8958   0.9139   1.0279   1.0384   1.3025   1.3987   1.4949   1.6532
     1.7556   1.7641   1.7797   1.8548   2.0571   2.1038   2.1256   2.2235
     2.5097   2.5565   2.5783   2.5911   2.6068   2.7662   2.7839   2.7919
     2.9101   2.9445   2.9488   2.9730   3.0725   3.1006   3.1991   3.2923
     3.3378   3.4129   3.4496   3.5053   3.5674   3.6254   3.6866   3.7095
     3.7237   3.8236   3.9203   3.9204   3.9436   4.0177   4.0742   4.1506
     4.1511   4.1776   4.2855   4.2949   4.3213   4.3333   4.3855   4.4262
     4.5133   4.5496   4.6611   4.6916   4.7000   4.7574   4.7744   4.8004
     4.8097   4.8340   4.9260   4.9276   5.0117   5.0203   5.0644   5.0675
     5.1443   5.1923

          k = 0.0833-0.2406-0.2308 ( 96078 PWs)   bands (ev):

  -114.1686-114.1685-114.1684-114.1684 -71.6408 -71.6408 -71.6408 -71.6408
   -71.6407 -71.6407 -71.6406 -71.6406 -71.4684 -71.4683 -71.4683 -71.4682
   -18.7043 -18.5737 -18.5650 -18.5511 -17.7475 -17.7463 -17.7441 -17.7164
   -17.3194 -17.2951 -17.2897 -17.2855 -17.2853 -17.0766 -17.0638 -17.0485
   -17.0304 -17.0301 -17.0300 -17.0297 -17.0296 -17.0189 -17.0181 -17.0166
   -16.9986 -16.9413 -16.9277 -16.9017 -16.2219 -16.1920 -16.1691 -15.8363
   -15.7933 -15.7768 -15.6914 -15.6420 -15.4963 -15.4706 -15.4449 -15.1671
   -15.1474 -15.1390 -15.0806 -15.0408 -12.9316 -12.4186 -12.3851 -12.3312
   -11.1690 -10.7444 -10.7069 -10.6450  -9.5673  -9.3443  -9.3147  -9.2669
    -8.6981  -8.6925  -8.6212  -8.6191  -8.5010  -8.3950  -8.3334  -8.3171
    -8.1164  -8.0890  -8.0753  -8.0474  -7.8802  -7.5023  -7.4124  -7.4100
    -7.1833  -7.1500  -7.1347  -7.1233  -6.3965  -6.3874  -6.3748  -6.1841
    -6.1536  -6.1450  -6.0651  -5.8669  -5.8426  -5.8409  -5.8395  -5.7822
    -5.7210  -5.6469  -5.6448  -5.6415  -5.4523  -5.4402  -5.4245  -5.4119
    -5.4058  -5.1808  -5.1716  -5.1444  -5.0070  -5.0037  -5.0010  -4.8330
    -4.7363  -4.7351  -4.6971  -4.6732  -4.6240  -4.6015  -4.6012  -4.5791
    -4.2696  -4.2512  -4.2501  -4.0863  -4.0840  -4.0517  -4.0515  -3.9551
    -3.8922  -3.8735  -3.8507  -3.8342  -3.8319  -3.7899  -3.7884  -3.7264
    -3.7212  -3.6779  -3.6714  -3.6262  -3.4329  -3.3823  -3.3796  -3.2975
    -3.2439  -3.1609  -3.1493  -3.0295  -1.0724  -0.8508  -0.7829  -0.7475
    -0.1530  -0.0719   0.0279   0.0550   0.1200   0.2197   0.2452   0.2995
     0.3855   0.4238   0.5071   0.5394   0.5615   0.5678   0.5767   0.8697
     0.9239   0.9697   1.0326   1.0885   1.3214   1.3620   1.3975   1.7161
     1.8152   1.8372   1.8401   1.8448   2.0127   2.1935   2.2329   2.2479
     2.4692   2.5063   2.5335   2.5456   2.6294   2.6474   2.7220   2.7617
     2.8288   2.8675   2.9542   3.0335   3.0905   3.0975   3.2410   3.3200
     3.4837   3.4909   3.5131   3.5565   3.6268   3.6854   3.7150   3.7973
     3.7992   3.8189   3.8286   3.8908   3.9184   3.9661   4.0475   4.0480
     4.1237   4.1493   4.1605   4.1974   4.2083   4.2288   4.3552   4.3606
     4.3960   4.4603   4.5535   4.5918   4.6740   4.6772   4.7259   4.7761
     4.7956   4.8479   4.8696   4.9394   4.9421   4.9806   5.0597   5.0816
     5.1264   5.1491

          k = 0.0833-0.0481-0.2308 ( 96016 PWs)   bands (ev):

  -114.1686-114.1685-114.1684-114.1684 -71.6408 -71.6408 -71.6408 -71.6408
   -71.6407 -71.6407 -71.6406 -71.6406 -71.4684 -71.4683 -71.4683 -71.4682
   -18.7194 -18.5590 -18.5561 -18.5560 -17.7494 -17.7490 -17.7489 -17.7089
   -17.3215 -17.3163 -17.2780 -17.2778 -17.2764 -17.0647 -17.0609 -17.0607
   -17.0307 -17.0307 -17.0304 -17.0304 -17.0303 -17.0169 -17.0166 -17.0165
   -17.0002 -16.9233 -16.9180 -16.9179 -16.2331 -16.2326 -16.2259 -15.7868
   -15.7855 -15.7782 -15.6310 -15.6236 -15.5010 -15.4997 -15.4935 -15.1495
   -15.1492 -15.1456 -15.0345 -15.0286 -13.0048 -12.3724 -12.3609 -12.3608
   -11.2179 -10.7012 -10.6881 -10.6880  -9.5936  -9.3312  -9.3215  -9.3212
    -8.6411  -8.6331  -8.6275  -8.5643  -8.5456  -8.3231  -8.3166  -8.3120
    -8.0383  -8.0370  -8.0319  -7.9730  -7.9452  -7.4147  -7.4091  -7.3897
    -7.2643  -7.2473  -7.2465  -7.2358  -6.4370  -6.4350  -6.4341  -6.1657
    -6.1613  -6.1588  -6.1020  -5.8597  -5.8572  -5.8554  -5.8046  -5.7682
    -5.7550  -5.6389  -5.6387  -5.6378  -5.4313  -5.4263  -5.4240  -5.3854
    -5.3790  -5.1392  -5.1357  -5.1310  -4.9927  -4.9897  -4.9896  -4.7821
    -4.7387  -4.7330  -4.7220  -4.7171  -4.6798  -4.6540  -4.6514  -4.6404
    -4.2774  -4.2745  -4.2733  -4.1134  -4.1088  -4.1084  -3.9970  -3.9405
    -3.9257  -3.8551  -3.8487  -3.8464  -3.7879  -3.7853  -3.7829  -3.7241
    -3.7136  -3.7106  -3.5949  -3.5736  -3.3839  -3.3819  -3.3756  -3.2188
    -3.1978  -3.1974  -2.9953  -2.9713  -1.2324  -0.7990  -0.7984  -0.7822
    -0.2589   0.0358   0.0417   0.0714   0.1122   0.1132   0.1144   0.3528
     0.3535   0.3681   0.5591   0.5615   0.5647   0.5673   0.5746   0.8598
     1.0126   1.0194   1.0291   1.0994   1.3449   1.3462   1.3572   1.7752
     1.8046   1.9119   1.9264   1.9266   1.9408   2.1955   2.1981   2.2075
     2.4500   2.5529   2.5705   2.5715   2.5900   2.6013   2.7478   2.7517
     2.7653   2.8302   2.9011   3.0183   3.0257   3.0354   3.3574   3.4014
     3.4102   3.4785   3.6463   3.6577   3.6745   3.6907   3.7353   3.7515
     3.7540   3.8592   3.9023   3.9301   3.9316   3.9397   4.0177   4.0497
     4.0541   4.0656   4.1335   4.1409   4.1499   4.1530   4.3124   4.3165
     4.4035   4.4331   4.4511   4.4645   4.5917   4.5923   4.6338   4.7077
     4.7520   4.7528   4.9569   4.9638   4.9756   4.9841   5.0096   5.0374
     5.0395   5.1084

          k = 0.2500 0.4330-0.2308 ( 96066 PWs)   bands (ev):

  -114.1686-114.1685-114.1684-114.1684 -71.6408 -71.6408 -71.6408 -71.6408
   -71.6407 -71.6407 -71.6406 -71.6406 -71.4684 -71.4683 -71.4683 -71.4682
   -18.6597 -18.6007 -18.6006 -18.5393 -17.7419 -17.7417 -17.7339 -17.7319
   -17.3233 -17.3140 -17.3063 -17.3054 -17.1992 -17.1005 -17.0994 -17.0316
   -17.0295 -17.0294 -17.0288 -17.0287 -17.0275 -17.0227 -17.0226 -17.0166
   -16.9913 -16.9652 -16.9650 -16.8601 -16.2011 -16.0558 -16.0515 -15.9417
   -15.8544 -15.7832 -15.7756 -15.7009 -15.4929 -15.3682 -15.3611 -15.2084
   -15.2078 -15.1275 -15.1241 -15.0761 -12.7349 -12.5050 -12.5049 -12.2668
   -11.0218 -10.8193 -10.8191 -10.5519  -9.4846  -9.3635  -9.3618  -9.1179
    -8.7901  -8.7730  -8.7383  -8.5808  -8.5295  -8.3788  -8.3277  -8.3107
    -8.2982  -8.1946  -8.1899  -8.1734  -7.6827  -7.6340  -7.4622  -7.4544
    -7.0668  -7.0133  -6.9736  -6.9413  -6.2775  -6.2741  -6.2414  -6.2079
    -6.1359  -6.1011  -6.0874  -5.9787  -5.8560  -5.8079  -5.7884  -5.7692
    -5.7049  -5.6538  -5.6398  -5.6340  -5.5017  -5.4985  -5.4353  -5.4183
    -5.4011  -5.2931  -5.2830  -5.2638  -4.9911  -4.9539  -4.9480  -4.8700
    -4.7114  -4.7064  -4.6421  -4.5970  -4.5580  -4.5349  -4.5299  -4.5255
    -4.3013  -4.2838  -4.2741  -4.2653  -4.0351  -4.0018  -3.9815  -3.9597
    -3.9238  -3.8949  -3.8931  -3.8431  -3.8245  -3.7937  -3.7644  -3.7103
    -3.6916  -3.6717  -3.6573  -3.6019  -3.4768  -3.4722  -3.4543  -3.3946
    -3.3498  -3.2979  -3.1756  -3.0463  -0.9283  -0.8243  -0.7597  -0.7566
    -0.2643  -0.0132  -0.0101  -0.0038   0.0145   0.2830   0.3932   0.4200
     0.4877   0.4896   0.4973   0.5042   0.5847   0.6200   0.6348   0.6839
     0.8743   0.9878   1.0226   1.0466   1.2242   1.5450   1.5501   1.6808
     1.7354   1.7613   1.7643   1.8210   2.0736   2.0988   2.1174   2.1530
     2.5286   2.5347   2.5935   2.6476   2.6555   2.7958   2.8292   2.8392
     2.8412   2.9463   2.9850   2.9860   3.0372   3.1204   3.2190   3.2196
     3.2812   3.3536   3.4236   3.4516   3.4586   3.6359   3.6680   3.7887
     3.8093   3.8145   3.8289   3.8483   4.0074   4.0134   4.0964   4.1174
     4.1924   4.2098   4.2881   4.3024   4.3952   4.4213   4.4307   4.4875
     4.4945   4.5055   4.5544   4.5593   4.6679   4.7500   4.7836   4.8437
     4.8630   4.8887   4.8947   4.9927   5.0375   5.0576   5.0581   5.1021
     5.1449   5.1905

          k = 0.2500 0.6255-0.2308 ( 96114 PWs)   bands (ev):

  -114.1686-114.1685-114.1684-114.1684 -71.6408 -71.6408 -71.6408 -71.6408
   -71.6407 -71.6407 -71.6406 -71.6406 -71.4684 -71.4683 -71.4683 -71.4682
   -18.6406 -18.6205 -18.6029 -18.5372 -17.7407 -17.7396 -17.7362 -17.7321
   -17.3276 -17.3119 -17.3100 -17.3087 -17.1642 -17.1304 -17.1004 -17.0300
   -17.0292 -17.0289 -17.0287 -17.0286 -17.0262 -17.0245 -17.0232 -17.0166
   -16.9861 -16.9778 -16.9664 -16.8521 -16.1960 -16.0379 -15.9858 -15.9620
   -15.9201 -15.7860 -15.7565 -15.7262 -15.4918 -15.3579 -15.3106 -15.2609
   -15.2156 -15.1252 -15.1101 -15.0912 -12.6574 -12.5790 -12.5112 -12.2555
   -10.9572 -10.8881 -10.8229 -10.5354  -9.4462  -9.4047  -9.3590  -9.0833
    -8.7978  -8.7793  -8.7694  -8.5844  -8.5285  -8.3657  -8.3340  -8.3216
    -8.2804  -8.2392  -8.2078  -8.2031  -7.6556  -7.6007  -7.5234  -7.4591
    -7.0556  -6.9889  -6.9321  -6.9276  -6.2637  -6.2281  -6.2069  -6.1969
    -6.1401  -6.1116  -6.0923  -6.0294  -5.8501  -5.7894  -5.7890  -5.7624
    -5.7247  -5.6381  -5.6296  -5.6241  -5.5204  -5.4844  -5.4841  -5.3799
    -5.3752  -5.3354  -5.3185  -5.2969  -4.9897  -4.9353  -4.9122  -4.8935
    -4.7030  -4.6941  -4.6527  -4.5857  -4.5396  -4.5270  -4.5159  -4.5102
    -4.3195  -4.3125  -4.3109  -4.2745  -4.0096  -3.9995  -3.9923  -3.9691
    -3.9048  -3.8964  -3.8907  -3.8351  -3.8056  -3.8039  -3.7960  -3.7038
    -3.6653  -3.6475  -3.6364  -3.6111  -3.5340  -3.5206  -3.4740  -3.3894
    -3.3160  -3.2701  -3.2410  -3.0276  -0.9369  -0.7804  -0.7718  -0.7602
    -0.3001  -0.0398  -0.0127   0.0051   0.0068   0.2873   0.4152   0.4387
     0.4790   0.4857   0.5048   0.5408   0.5554   0.6361   0.6478   0.7079
     0.8253   0.9937   1.0306   1.0434   1.1937   1.6059   1.6339   1.6855
     1.7365   1.7468   1.7534   1.7843   2.0734   2.0771   2.0823   2.1311
     2.5229   2.5761   2.6181   2.6347   2.7145   2.7944   2.8578   2.8612
     2.8818   2.8949   2.9177   3.0188   3.0582   3.1514   3.2039   3.2116
     3.2915   3.3034   3.3626   3.3662   3.4354   3.6477   3.7107   3.7868
     3.7988   3.8010   3.8191   3.9143   3.9342   4.0138   4.1176   4.1281
     4.1924   4.2007   4.2061   4.3872   4.3989   4.4312   4.5136   4.5184
     4.5253   4.5371   4.5696   4.6110   4.6762   4.6989   4.7409   4.7914
     4.8566   4.8719   4.9266   4.9384   5.0706   5.0800   5.0969   5.1047
     5.1175   5.2190

          k = 0.2500-0.3368-0.2308 ( 96066 PWs)   bands (ev):

  -114.1686-114.1685-114.1684-114.1684 -71.6408 -71.6408 -71.6408 -71.6408
   -71.6407 -71.6407 -71.6406 -71.6406 -71.4684 -71.4683 -71.4683 -71.4682
   -18.6765 -18.5961 -18.5825 -18.5435 -17.7436 -17.7433 -17.7371 -17.7271
   -17.3157 -17.3157 -17.3019 -17.2996 -17.2312 -17.0973 -17.0776 -17.0359
   -17.0298 -17.0296 -17.0290 -17.0288 -17.0286 -17.0219 -17.0206 -17.0167
   -16.9947 -16.9623 -16.9480 -16.8744 -16.2073 -16.1122 -16.0833 -15.9069
   -15.8058 -15.7954 -15.7646 -15.6780 -15.4938 -15.4080 -15.3838 -15.1940
   -15.1609 -15.1428 -15.1243 -15.0632 -12.8061 -12.4923 -12.4396 -12.2880
   -11.0780 -10.8107 -10.7559 -10.5821  -9.5170  -9.3657  -9.3268  -9.1700
    -8.7705  -8.7452  -8.7009  -8.6265  -8.4596  -8.4242  -8.3434  -8.3130
    -8.2440  -8.1669  -8.1438  -8.1348  -7.7578  -7.5921  -7.4468  -7.4318
    -7.0906  -7.0411  -7.0308  -6.9863  -6.3275  -6.3017  -6.2894  -6.1973
    -6.1653  -6.1004  -6.0581  -5.9260  -5.8547  -5.8307  -5.7993  -5.7817
    -5.6845  -5.6719  -5.6481  -5.6367  -5.4936  -5.4847  -5.4316  -5.4206
    -5.4008  -5.2576  -5.2379  -5.2218  -4.9924  -4.9813  -4.9785  -4.8565
    -4.7175  -4.7132  -4.6522  -4.6242  -4.5824  -4.5477  -4.5464  -4.5441
    -4.2860  -4.2544  -4.2504  -4.2099  -4.0513  -4.0164  -3.9773  -3.9583
    -3.9550  -3.8836  -3.8690  -3.8427  -3.8416  -3.7919  -3.7444  -3.7214
    -3.7161  -3.7061  -3.6586  -3.5923  -3.4700  -3.4059  -3.4019  -3.3817
    -3.3722  -3.2890  -3.1217  -3.0824  -0.9070  -0.8881  -0.7760  -0.7361
    -0.2017  -0.0442  -0.0206   0.0472   0.0495   0.2879   0.3161   0.4065
     0.4383   0.4844   0.4872   0.5228   0.5453   0.6000   0.6321   0.7573
     0.8815   0.9917   1.0003   1.0668   1.2667   1.4656   1.4783   1.6775
     1.7494   1.7746   1.7809   1.8379   2.0671   2.1349   2.1629   2.1783
     2.5022   2.5276   2.5586   2.5939   2.6859   2.7428   2.7521   2.8209
     2.8264   2.9377   3.0374   3.0495   3.0542   3.0584   3.2126   3.2375
     3.2958   3.4397   3.4849   3.4858   3.5842   3.5940   3.6196   3.7450
     3.8273   3.8332   3.8529   3.8567   4.0149   4.0500   4.0728   4.0922
     4.2145   4.2165   4.2171   4.2443   4.3352   4.3612   4.3845   4.4573
     4.4801   4.4936   4.5684   4.6075   4.6804   4.7213   4.7879   4.8543
     4.8642   4.8918   4.9129   4.9449   5.0153   5.0175   5.0234   5.0709
     5.1036   5.1853

          k = 0.2500-0.1443-0.2308 ( 96098 PWs)   bands (ev):

  -114.1686-114.1685-114.1684-114.1684 -71.6408 -71.6408 -71.6408 -71.6408
   -71.6407 -71.6407 -71.6406 -71.6406 -71.4684 -71.4683 -71.4683 -71.4682
   -18.6995 -18.5822 -18.5568 -18.5566 -17.7471 -17.7441 -17.7440 -17.7186
   -17.3184 -17.2970 -17.2963 -17.2867 -17.2761 -17.0866 -17.0531 -17.0522
   -17.0303 -17.0298 -17.0297 -17.0296 -17.0295 -17.0199 -17.0174 -17.0174
   -16.9980 -16.9510 -16.9117 -16.9110 -16.2048 -16.2012 -16.1436 -15.8328
   -15.8258 -15.7629 -15.7109 -15.6473 -15.4849 -15.4788 -15.4238 -15.1632
   -15.1612 -15.1314 -15.0945 -15.0452 -12.9089 -12.4485 -12.3502 -12.3501
   -11.1533 -10.7743 -10.6649 -10.6647  -9.5589  -9.3603  -9.2776  -9.2747
    -8.7172  -8.6838  -8.6484  -8.6363  -8.4884  -8.3852  -8.3419  -8.3261
    -8.1292  -8.1271  -8.0776  -8.0641  -7.8606  -7.4732  -7.4647  -7.4199
    -7.1623  -7.1244  -7.1014  -7.0993  -6.3803  -6.3708  -6.3649  -6.1870
    -6.1610  -6.1315  -6.0579  -5.8648  -5.8542  -5.8436  -5.8298  -5.7850
    -5.7109  -5.6539  -5.6467  -5.6434  -5.4601  -5.4455  -5.4372  -5.4069
    -5.4040  -5.1943  -5.1753  -5.1608  -5.0128  -5.0021  -4.9958  -4.8421
    -4.7398  -4.7084  -4.6879  -4.6850  -4.6068  -4.5963  -4.5877  -4.5658
    -4.2624  -4.2592  -4.2454  -4.0818  -4.0770  -4.0604  -4.0429  -3.9570
    -3.9161  -3.8589  -3.8481  -3.8350  -3.8167  -3.8002  -3.7908  -3.7504
    -3.6952  -3.6773  -3.6695  -3.6456  -3.4296  -3.4035  -3.3747  -3.3443
    -3.2010  -3.1870  -3.1822  -3.0514  -1.0308  -0.8326  -0.8283  -0.7249
    -0.1259  -0.0608  -0.0444   0.0797   0.1564   0.1799   0.2994   0.3202
     0.3451   0.4546   0.5001   0.5098   0.5579   0.5822   0.6089   0.8710
     0.9115   0.9480   1.0275   1.0858   1.3329   1.3479   1.4123   1.7008
     1.7913   1.8278   1.8311   1.8454   2.0250   2.1783   2.2117   2.2575
     2.4743   2.4880   2.5398   2.5930   2.6014   2.6458   2.7385   2.7659
     2.8448   2.8795   2.9714   3.0246   3.0743   3.1415   3.2121   3.3634
     3.4115   3.4144   3.5255   3.6060   3.6302   3.6418   3.6514   3.7750
     3.8198   3.8480   3.8907   3.9362   3.9423   3.9984   4.0105   4.0310
     4.0515   4.1632   4.1732   4.1891   4.2172   4.2291   4.3780   4.4483
     4.4815   4.5419   4.5710   4.5745   4.6180   4.6329   4.6943   4.8294
     4.8378   4.8545   4.9507   4.9630   4.9663   4.9847   5.0141   5.0148
     5.0844   5.1854

          k = 0.4167 0.7217-0.2308 ( 96084 PWs)   bands (ev):

  -114.1686-114.1685-114.1684-114.1684 -71.6408 -71.6408 -71.6408 -71.6408
   -71.6407 -71.6407 -71.6406 -71.6406 -71.4684 -71.4683 -71.4683 -71.4682
   -18.6372 -18.6371 -18.5858 -18.5408 -17.7409 -17.7374 -17.7372 -17.7336
   -17.3249 -17.3111 -17.3092 -17.3086 -17.1606 -17.1599 -17.0759 -17.0328
   -17.0292 -17.0292 -17.0284 -17.0283 -17.0259 -17.0258 -17.0216 -17.0170
   -16.9850 -16.9850 -16.9496 -16.8627 -16.1911 -16.0846 -15.9461 -15.9387
   -15.9361 -15.8220 -15.7270 -15.7226 -15.4873 -15.3973 -15.2714 -15.2668
   -15.2081 -15.1441 -15.0958 -15.0931 -12.6449 -12.6448 -12.4458 -12.2706
   -10.9477 -10.9476 -10.7566 -10.5551  -9.4429  -9.4425  -9.3103  -9.1124
    -8.7914  -8.7685  -8.7606  -8.6500  -8.4534  -8.3511  -8.3435  -8.3384
    -8.2901  -8.2471  -8.1832  -8.1826  -7.6217  -7.5942  -7.5932  -7.4283
    -7.0603  -7.0272  -6.9338  -6.9166  -6.3065  -6.2487  -6.2006  -6.1528
    -6.1526  -6.1473  -6.0472  -6.0283  -5.8475  -5.8099  -5.7838  -5.7543
    -5.7121  -5.6599  -5.6450  -5.6316  -5.5262  -5.5064  -5.4395  -5.3885
    -5.3522  -5.3390  -5.2991  -5.2771  -4.9887  -4.9550  -4.9191  -4.9006
    -4.7088  -4.6738  -4.6495  -4.6060  -4.5456  -4.5356  -4.5145  -4.5030
    -4.3285  -4.3204  -4.3007  -4.2554  -3.9995  -3.9909  -3.9870  -3.9635
    -3.9089  -3.8925  -3.8705  -3.8358  -3.8314  -3.8272  -3.7963  -3.7120
    -3.6610  -3.6554  -3.6194  -3.5957  -3.5460  -3.5149  -3.4416  -3.4056
    -3.2901  -3.2840  -3.2436  -3.0556  -0.9250  -0.7983  -0.7646  -0.7629
    -0.2678  -0.0548  -0.0063   0.0165   0.0264   0.3057   0.3310   0.4457
     0.4627   0.4995   0.5059   0.5372   0.5782   0.6028   0.6761   0.7619
     0.8423   0.9516   1.0011   1.0604   1.2264   1.5211   1.6170   1.6290
     1.7373   1.7610   1.7834   1.7980   2.0726   2.0763   2.0855   2.1426
     2.5429   2.5713   2.5716   2.6601   2.7231   2.7331   2.8484   2.8498
     2.8653   2.9112   2.9602   3.0288   3.0676   3.0725   3.2216   3.2243
     3.2253   3.3870   3.3942   3.4110   3.5619   3.5688   3.6972   3.7242
     3.7509   3.8094   3.8600   3.8726   4.0137   4.1230   4.1277   4.1356
     4.1913   4.2036   4.2533   4.2930   4.3316   4.4067   4.4598   4.4931
     4.4987   4.5445   4.6152   4.6635   4.6979   4.7107   4.7981   4.8039
     4.8132   4.8596   4.9111   4.9795   5.0533   5.1051   5.1135   5.1339
     5.1345   5.2088

          k = 0.4167-0.2406-0.2308 ( 96042 PWs)   bands (ev):

  -114.1686-114.1685-114.1684-114.1684 -71.6408 -71.6408 -71.6408 -71.6408
   -71.6407 -71.6407 -71.6406 -71.6406 -71.4684 -71.4683 -71.4683 -71.4682
   -18.6638 -18.6210 -18.5574 -18.5573 -17.7413 -17.7390 -17.7389 -17.7313
   -17.3142 -17.3137 -17.3116 -17.3004 -17.2094 -17.1377 -17.0467 -17.0462
   -17.0296 -17.0292 -17.0285 -17.0284 -17.0277 -17.0242 -17.0186 -17.0185
   -16.9923 -16.9786 -16.9050 -16.9045 -16.1665 -16.1633 -16.0051 -15.8826
   -15.8774 -15.8476 -15.7301 -15.6871 -15.4639 -15.4599 -15.3138 -15.1954
   -15.1779 -15.1763 -15.1056 -15.0738 -12.7531 -12.5855 -12.3394 -12.3394
   -11.0377 -10.8987 -10.6413 -10.6411  -9.4954  -9.4202  -9.2205  -9.2171
    -8.7587  -8.7422  -8.7218  -8.7172  -8.4025  -8.3771  -8.3466  -8.3312
    -8.2617  -8.2451  -8.1425  -8.1396  -7.7123  -7.5433  -7.4940  -7.4912
    -7.0886  -7.0669  -6.9494  -6.9477  -6.3283  -6.3184  -6.2146  -6.1929
    -6.1736  -6.0780  -6.0665  -5.9599  -5.8514  -5.8264  -5.7821  -5.7741
    -5.6815  -5.6711  -5.6652  -5.6637  -5.5249  -5.4905  -5.4217  -5.3933
    -5.3724  -5.2688  -5.2615  -5.2389  -4.9884  -4.9807  -4.9657  -4.8929
    -4.6876  -4.6823  -4.6694  -4.6345  -4.5586  -4.5553  -4.5289  -4.5112
    -4.3078  -4.2731  -4.2658  -4.2635  -4.0056  -3.9948  -3.9654  -3.9648
    -3.9248  -3.8798  -3.8552  -3.8466  -3.8349  -3.8011  -3.7885  -3.7723
    -3.6812  -3.6681  -3.6332  -3.5913  -3.5008  -3.4590  -3.4187  -3.4078
    -3.3473  -3.1961  -3.1734  -3.1679  -0.8654  -0.8616  -0.8248  -0.7203
    -0.1475  -0.1405  -0.0020   0.0608   0.1333   0.1579   0.3588   0.3859
     0.4563   0.4845   0.5040   0.5215   0.5694   0.6031   0.7510   0.8205
     0.8472   0.8764   1.0190   1.0399   1.3422   1.3574   1.5124   1.6231
     1.7601   1.7623   1.7753   1.8416   2.0807   2.0830   2.0985   2.1872
     2.5220   2.5677   2.5709   2.6292   2.6356   2.7681   2.7821   2.7913
     2.8652   2.9273   2.9726   3.0105   3.1065   3.1083   3.1415   3.3101
     3.3211   3.3624   3.3922   3.5516   3.6047   3.6119   3.6470   3.7342
     3.7696   3.8510   3.8579   3.8778   3.9498   3.9656   4.1296   4.2047
     4.2077   4.2275   4.2835   4.3163   4.3435   4.3446   4.3703   4.4737
     4.4751   4.5246   4.6161   4.6731   4.7382   4.7895   4.8014   4.8577
     4.8596   4.8799   4.8949   4.9559   4.9698   5.0188   5.0238   5.0307
     5.0715   5.1786

          k =-0.0833 0.1443 0.2308 ( 95992 PWs)   bands (ev):

  -114.1686-114.1685-114.1684-114.1684 -71.6408 -71.6408 -71.6408 -71.6408
   -71.6407 -71.6407 -71.6406 -71.6406 -71.4684 -71.4683 -71.4683 -71.4682
   -18.7143 -18.5622 -18.5620 -18.5533 -17.7485 -17.7484 -17.7471 -17.7116
   -17.3208 -17.3057 -17.2849 -17.2809 -17.2804 -17.0660 -17.0655 -17.0547
   -17.0306 -17.0305 -17.0304 -17.0301 -17.0300 -17.0174 -17.0173 -17.0165
   -16.9997 -16.9266 -16.9264 -16.9105 -16.2315 -16.2120 -16.2105 -15.8060
   -15.7842 -15.7807 -15.6517 -15.6299 -15.5015 -15.4834 -15.4801 -15.1566
   -15.1461 -15.1450 -15.0503 -15.0327 -12.9795 -12.3805 -12.3804 -12.3466
   -11.2014 -10.7073 -10.7072 -10.6684  -9.5848  -9.3291  -9.3283  -9.2993
    -8.6652  -8.6519  -8.6254  -8.5848  -8.5303  -8.3471  -8.3284  -8.3126
    -8.0665  -8.0523  -8.0489  -8.0020  -7.9231  -7.4579  -7.4084  -7.3943
    -7.2234  -7.2150  -7.2025  -7.1938  -6.4223  -6.4202  -6.4129  -6.1705
    -6.1634  -6.1509  -6.0870  -5.8615  -5.8553  -5.8492  -5.8156  -5.7759
    -5.7416  -5.6419  -5.6404  -5.6377  -5.4386  -5.4305  -5.4155  -5.4058
    -5.3902  -5.1549  -5.1425  -5.1315  -5.0031  -5.0005  -4.9955  -4.8078
    -4.7398  -4.7289  -4.7246  -4.6977  -4.6488  -4.6418  -4.6223  -4.6161
    -4.2721  -4.2670  -4.2606  -4.1039  -4.1023  -4.0886  -4.0113  -3.9475
    -3.9067  -3.8622  -3.8532  -3.8387  -3.8050  -3.7907  -3.7797  -3.7308
    -3.7064  -3.6941  -3.6486  -3.5913  -3.4016  -3.3817  -3.3762  -3.2348
    -3.2342  -3.1739  -3.0578  -2.9906  -1.1717  -0.8230  -0.7780  -0.7765
    -0.2184  -0.0117   0.0467   0.0622   0.1211   0.1559   0.1597   0.3305
     0.3763   0.3774   0.5309   0.5593   0.5634   0.5678   0.5721   0.8612
     0.9766   1.0084   1.0267   1.0968   1.3304   1.3599   1.3647   1.7486
     1.8177   1.8753   1.8767   1.8992   1.9742   2.2051   2.2239   2.2290
     2.4578   2.5394   2.5449   2.5596   2.5902   2.6257   2.7274   2.7676
     2.7745   2.8429   2.9193   3.0326   3.0531   3.0715   3.3171   3.3325
     3.4607   3.4903   3.6110   3.6142   3.6401   3.7112   3.7428   3.7876
     3.7969   3.8296   3.8774   3.8808   3.8878   3.9259   4.0175   4.0194
     4.0973   4.1274   4.1515   4.1734   4.1872   4.1945   4.2607   4.3773
     4.3913   4.4491   4.5080   4.5138   4.5801   4.6014   4.6666   4.7322
     4.8012   4.8196   4.9013   4.9275   4.9696   4.9965   5.0273   5.0526
     5.0972   5.1316

          k = 0.1667 0.0000-0.2308 ( 95992 PWs)   bands (ev):

  -114.1686-114.1685-114.1684-114.1684 -71.6408 -71.6408 -71.6408 -71.6408
   -71.6407 -71.6407 -71.6406 -71.6406 -71.4684 -71.4683 -71.4683 -71.4682
   -18.7143 -18.5621 -18.5621 -18.5534 -17.7485 -17.7485 -17.7470 -17.7116
   -17.3207 -17.3058 -17.2849 -17.2808 -17.2804 -17.0660 -17.0655 -17.0548
   -17.0306 -17.0305 -17.0304 -17.0301 -17.0300 -17.0174 -17.0173 -17.0165
   -16.9997 -16.9267 -16.9264 -16.9105 -16.2315 -16.2120 -16.2105 -15.8060
   -15.7842 -15.7807 -15.6517 -15.6299 -15.5015 -15.4834 -15.4801 -15.1565
   -15.1461 -15.1451 -15.0503 -15.0328 -12.9795 -12.3805 -12.3804 -12.3466
   -11.2014 -10.7073 -10.7072 -10.6684  -9.5848  -9.3292  -9.3282  -9.2993
    -8.6653  -8.6519  -8.6253  -8.5848  -8.5303  -8.3471  -8.3284  -8.3126
    -8.0665  -8.0523  -8.0489  -8.0020  -7.9231  -7.4579  -7.4083  -7.3943
    -7.2236  -7.2150  -7.2024  -7.1937  -6.4223  -6.4201  -6.4129  -6.1705
    -6.1634  -6.1508  -6.0870  -5.8616  -5.8552  -5.8492  -5.8156  -5.7759
    -5.7415  -5.6419  -5.6404  -5.6377  -5.4386  -5.4306  -5.4154  -5.4057
    -5.3903  -5.1549  -5.1425  -5.1315  -5.0030  -5.0006  -4.9955  -4.8078
    -4.7398  -4.7289  -4.7245  -4.6977  -4.6488  -4.6419  -4.6223  -4.6161
    -4.2721  -4.2670  -4.2606  -4.1040  -4.1023  -4.0886  -4.0113  -3.9475
    -3.9067  -3.8622  -3.8532  -3.8388  -3.8050  -3.7907  -3.7797  -3.7308
    -3.7064  -3.6941  -3.6486  -3.5913  -3.4016  -3.3817  -3.3762  -3.2347
    -3.2343  -3.1739  -3.0578  -2.9906  -1.1717  -0.8231  -0.7779  -0.7765
    -0.2184  -0.0117   0.0466   0.0622   0.1212   0.1559   0.1596   0.3305
     0.3763   0.3773   0.5310   0.5593   0.5634   0.5677   0.5721   0.8612
     0.9766   1.0083   1.0268   1.0968   1.3303   1.3600   1.3647   1.7487
     1.8177   1.8753   1.8767   1.8992   1.9742   2.2051   2.2239   2.2290
     2.4577   2.5393   2.5450   2.5597   2.5903   2.6255   2.7274   2.7675
     2.7745   2.8428   2.9193   3.0325   3.0532   3.0716   3.3171   3.3325
     3.4607   3.4903   3.6111   3.6142   3.6401   3.7112   3.7429   3.7876
     3.7968   3.8297   3.8774   3.8808   3.8879   3.9258   4.0174   4.0194
     4.0973   4.1273   4.1515   4.1734   4.1872   4.1945   4.2607   4.3773
     4.3914   4.4490   4.5080   4.5139   4.5801   4.6015   4.6666   4.7322
     4.8012   4.8196   4.9013   4.9275   4.9696   4.9965   5.0273   5.0525
     5.0973   5.1315

          k =-0.0833 0.3368 0.2308 ( 96032 PWs)   bands (ev):

  -114.1686-114.1685-114.1684-114.1684 -71.6408 -71.6408 -71.6408 -71.6408
   -71.6407 -71.6407 -71.6406 -71.6406 -71.4684 -71.4683 -71.4683 -71.4682
   -18.6900 -18.5898 -18.5675 -18.5494 -17.7457 -17.7438 -17.7408 -17.7224
   -17.3172 -17.3059 -17.2997 -17.2914 -17.2575 -17.0942 -17.0611 -17.0432
   -17.0301 -17.0296 -17.0293 -17.0293 -17.0292 -17.0208 -17.0189 -17.0169
   -16.9968 -16.9578 -16.9280 -16.8929 -16.2068 -16.1682 -16.1118 -15.8704
   -15.8133 -15.7642 -15.7471 -15.6588 -15.4882 -15.4566 -15.3980 -15.1788
   -15.1519 -15.1287 -15.1227 -15.0522 -12.8658 -12.4734 -12.3871 -12.3168
   -11.1225 -10.7964 -10.7027 -10.6216  -9.5420  -9.3675  -9.2943  -9.2279
    -8.7341  -8.7308  -8.6656  -8.6240  -8.4611  -8.4362  -8.3385  -8.3174
    -8.1789  -8.1462  -8.1045  -8.0953  -7.8193  -7.5336  -7.4429  -7.4236
    -7.1401  -7.1055  -7.0470  -7.0393  -6.3681  -6.3317  -6.3309  -6.1977
    -6.1446  -6.1343  -6.0512  -5.8828  -5.8697  -5.8265  -5.8225  -5.7798
    -5.6996  -5.6555  -5.6516  -5.6515  -5.4797  -5.4562  -5.4235  -5.4137
    -5.4117  -5.2158  -5.2129  -5.1789  -5.0001  -4.9980  -4.9902  -4.8555
    -4.7295  -4.7258  -4.6608  -4.6538  -4.5925  -4.5797  -4.5707  -4.5477
    -4.2705  -4.2525  -4.2479  -4.1312  -4.0579  -4.0574  -4.0039  -3.9577
    -3.9219  -3.8783  -3.8459  -3.8344  -3.8265  -3.8039  -3.7792  -3.7753
    -3.6852  -3.6742  -3.6646  -3.6329  -3.4666  -3.4013  -3.3831  -3.3543
    -3.2755  -3.2467  -3.1273  -3.0875  -0.9623  -0.8759  -0.7984  -0.7238
    -0.1326  -0.0838  -0.0188   0.0578   0.0992   0.2633   0.2861   0.3452
     0.4013   0.4910   0.4998   0.5064   0.5584   0.5756   0.5974   0.8612
     0.8901   0.9279   1.0358   1.0676   1.3150   1.3747   1.4413   1.6848
     1.7746   1.7899   1.8066   1.8533   2.0400   2.1518   2.1920   2.2500
     2.4833   2.5058   2.5570   2.5648   2.6196   2.6893   2.7630   2.7676
     2.8817   2.9029   3.0052   3.0102   3.0305   3.1172   3.2415   3.3096
     3.3734   3.4701   3.5180   3.5391   3.5442   3.6183   3.7034   3.7552
     3.7574   3.8422   3.8545   3.9227   4.0090   4.0188   4.0268   4.1038
     4.1079   4.1391   4.1999   4.2055   4.2603   4.2853   4.3795   4.4444
     4.5011   4.5633   4.5806   4.6402   4.6756   4.6773   4.7418   4.7682
     4.8192   4.8797   4.9229   4.9553   4.9858   5.0054   5.0664   5.1096
     5.1122   5.1190

          k =-0.2500 0.2406-0.2308 ( 96032 PWs)   bands (ev):

  -114.1686-114.1685-114.1684-114.1684 -71.6408 -71.6408 -71.6408 -71.6408
   -71.6407 -71.6407 -71.6406 -71.6406 -71.4684 -71.4683 -71.4683 -71.4682
   -18.6900 -18.5898 -18.5675 -18.5494 -17.7456 -17.7439 -17.7407 -17.7224
   -17.3171 -17.3063 -17.2986 -17.2921 -17.2576 -17.0934 -17.0623 -17.0427
   -17.0301 -17.0297 -17.0293 -17.0293 -17.0291 -17.0209 -17.0188 -17.0169
   -16.9968 -16.9577 -16.9286 -16.8924 -16.2095 -16.1634 -16.1141 -15.8657
   -15.8227 -15.7592 -15.7466 -15.6595 -15.4920 -15.4483 -15.4029 -15.1775
   -15.1550 -15.1266 -15.1218 -15.0529 -12.8658 -12.4734 -12.3870 -12.3168
   -11.1225 -10.7962 -10.7030 -10.6214  -9.5420  -9.3665  -9.2977  -9.2251
    -8.7443  -8.6994  -8.6646  -8.6609  -8.4623  -8.3918  -8.3632  -8.3213
    -8.1805  -8.1468  -8.1018  -8.0956  -7.8191  -7.5327  -7.4396  -7.4348
    -7.1248  -7.0846  -7.0703  -7.0461  -6.3588  -6.3416  -6.3331  -6.1814
    -6.1797  -6.1116  -6.0514  -5.8823  -5.8515  -5.8492  -5.8153  -5.7876
    -5.6922  -5.6682  -5.6488  -5.6400  -5.4764  -5.4693  -5.4349  -5.4163
    -5.3937  -5.2246  -5.1942  -5.1873  -5.0055  -4.9963  -4.9932  -4.8493
    -4.7315  -4.7034  -4.6699  -4.6661  -4.6000  -4.5699  -4.5670  -4.5540
    -4.2714  -4.2513  -4.2463  -4.1322  -4.0664  -4.0312  -4.0213  -3.9581
    -3.9377  -3.8572  -3.8490  -3.8488  -3.8351  -3.7963  -3.7684  -3.7481
    -3.7157  -3.6751  -3.6649  -3.6267  -3.4389  -3.4191  -3.3805  -3.3698
    -3.2827  -3.2381  -3.1314  -3.0814  -0.9625  -0.8723  -0.8035  -0.7223
    -0.1248  -0.0846  -0.0412   0.0756   0.1182   0.2286   0.3087   0.3606
     0.3729   0.4715   0.4847   0.5156   0.5417   0.5968   0.6319   0.8376
     0.8741   0.9754   1.0076   1.0807   1.3033   1.3964   1.4336   1.6850
     1.7799   1.7867   1.8066   1.8460   2.0472   2.1687   2.1762   2.2328
     2.4841   2.5068   2.5550   2.5579   2.6667   2.6866   2.7190   2.8032
     2.8281   2.9031   3.0049   3.0422   3.0626   3.1528   3.2052   3.2535
     3.3442   3.5023   3.5320   3.5366   3.5474   3.6035   3.7103   3.7414
     3.7986   3.8552   3.8601   3.8847   3.9880   4.0335   4.0432   4.0953
     4.1190   4.1723   4.2103   4.2160   4.2676   4.2822   4.3432   4.4261
     4.4739   4.5762   4.5803   4.6253   4.6528   4.7125   4.7484   4.7792
     4.8463   4.8793   4.9033   4.9663   4.9934   5.0404   5.0425   5.0586
     5.0679   5.0913

          k = 0.3333 0.0962-0.2308 ( 96032 PWs)   bands (ev):

  -114.1686-114.1685-114.1684-114.1684 -71.6408 -71.6408 -71.6408 -71.6408
   -71.6407 -71.6407 -71.6406 -71.6406 -71.4684 -71.4683 -71.4683 -71.4682
   -18.6900 -18.5898 -18.5675 -18.5494 -17.7457 -17.7439 -17.7407 -17.7224
   -17.3171 -17.3064 -17.2987 -17.2921 -17.2576 -17.0934 -17.0623 -17.0428
   -17.0301 -17.0297 -17.0293 -17.0293 -17.0291 -17.0209 -17.0188 -17.0169
   -16.9968 -16.9577 -16.9286 -16.8924 -16.2095 -16.1634 -16.1141 -15.8657
   -15.8227 -15.7592 -15.7466 -15.6595 -15.4920 -15.4483 -15.4029 -15.1774
   -15.1550 -15.1267 -15.1218 -15.0529 -12.8658 -12.4734 -12.3870 -12.3168
   -11.1225 -10.7962 -10.7030 -10.6215  -9.5420  -9.3664  -9.2978  -9.2251
    -8.7443  -8.6993  -8.6646  -8.6608  -8.4622  -8.3917  -8.3633  -8.3213
    -8.1805  -8.1467  -8.1018  -8.0956  -7.8191  -7.5326  -7.4396  -7.4348
    -7.1247  -7.0846  -7.0705  -7.0461  -6.3588  -6.3416  -6.3331  -6.1814
    -6.1798  -6.1115  -6.0514  -5.8823  -5.8515  -5.8493  -5.8153  -5.7875
    -5.6922  -5.6682  -5.6487  -5.6401  -5.4764  -5.4693  -5.4349  -5.4163
    -5.3937  -5.2246  -5.1942  -5.1873  -5.0055  -4.9963  -4.9933  -4.8493
    -4.7315  -4.7034  -4.6698  -4.6661  -4.6000  -4.5699  -4.5670  -4.5541
    -4.2714  -4.2513  -4.2463  -4.1322  -4.0665  -4.0312  -4.0213  -3.9581
    -3.9377  -3.8572  -3.8490  -3.8488  -3.8351  -3.7963  -3.7684  -3.7481
    -3.7156  -3.6751  -3.6648  -3.6267  -3.4389  -3.4190  -3.3805  -3.3698
    -3.2827  -3.2382  -3.1314  -3.0814  -0.9625  -0.8724  -0.8035  -0.7222
    -0.1248  -0.0846  -0.0412   0.0756   0.1183   0.2286   0.3089   0.3606
     0.3728   0.4715   0.4847   0.5156   0.5418   0.5968   0.6318   0.8376
     0.8740   0.9755   1.0076   1.0807   1.3033   1.3964   1.4336   1.6851
     1.7800   1.7866   1.8065   1.8460   2.0472   2.1687   2.1762   2.2327
     2.4840   2.5068   2.5551   2.5578   2.6665   2.6866   2.7191   2.8032
     2.8282   2.9031   3.0049   3.0423   3.0626   3.1530   3.2052   3.2536
     3.3442   3.5023   3.5320   3.5366   3.5474   3.6035   3.7103   3.7414
     3.7987   3.8551   3.8601   3.8847   3.9880   4.0335   4.0430   4.0953
     4.1191   4.1723   4.2103   4.2160   4.2675   4.2821   4.3433   4.4261
     4.4739   4.5762   4.5802   4.6253   4.6529   4.7124   4.7483   4.7791
     4.8463   4.8793   4.9032   4.9663   4.9934   5.0403   5.0425   5.0586
     5.0679   5.0913

          k =-0.2500-0.2406 0.2308 ( 96032 PWs)   bands (ev):

  -114.1686-114.1685-114.1684-114.1684 -71.6408 -71.6408 -71.6408 -71.6408
   -71.6407 -71.6407 -71.6406 -71.6406 -71.4684 -71.4683 -71.4683 -71.4682
   -18.6900 -18.5898 -18.5675 -18.5494 -17.7457 -17.7437 -17.7407 -17.7224
   -17.3172 -17.3059 -17.2997 -17.2914 -17.2575 -17.0942 -17.0611 -17.0432
   -17.0301 -17.0296 -17.0293 -17.0293 -17.0292 -17.0208 -17.0189 -17.0169
   -16.9968 -16.9579 -16.9280 -16.8929 -16.2068 -16.1683 -16.1117 -15.8703
   -15.8133 -15.7643 -15.7471 -15.6588 -15.4882 -15.4566 -15.3979 -15.1788
   -15.1519 -15.1287 -15.1227 -15.0522 -12.8658 -12.4734 -12.3871 -12.3168
   -11.1225 -10.7964 -10.7027 -10.6216  -9.5420  -9.3675  -9.2942  -9.2280
    -8.7341  -8.7309  -8.6656  -8.6239  -8.4610  -8.4362  -8.3385  -8.3174
    -8.1788  -8.1462  -8.1046  -8.0953  -7.8192  -7.5336  -7.4428  -7.4236
    -7.1402  -7.1054  -7.0470  -7.0394  -6.3681  -6.3317  -6.3309  -6.1977
    -6.1446  -6.1342  -6.0512  -5.8828  -5.8698  -5.8265  -5.8224  -5.7798
    -5.6995  -5.6554  -5.6516  -5.6515  -5.4796  -5.4562  -5.4234  -5.4137
    -5.4118  -5.2158  -5.2129  -5.1789  -5.0001  -4.9979  -4.9902  -4.8555
    -4.7296  -4.7259  -4.6608  -4.6538  -4.5925  -4.5797  -4.5708  -4.5477
    -4.2705  -4.2525  -4.2479  -4.1313  -4.0579  -4.0575  -4.0039  -3.9577
    -3.9220  -3.8783  -3.8459  -3.8344  -3.8266  -3.8039  -3.7792  -3.7753
    -3.6853  -3.6742  -3.6646  -3.6329  -3.4666  -3.4013  -3.3831  -3.3543
    -3.2755  -3.2466  -3.1274  -3.0875  -0.9623  -0.8759  -0.7984  -0.7238
    -0.1325  -0.0839  -0.0188   0.0578   0.0993   0.2633   0.2862   0.3452
     0.4013   0.4910   0.4998   0.5064   0.5584   0.5756   0.5973   0.8612
     0.8900   0.9279   1.0359   1.0676   1.3149   1.3747   1.4414   1.6849
     1.7746   1.7898   1.8066   1.8532   2.0400   2.1517   2.1919   2.2501
     2.4833   2.5060   2.5569   2.5646   2.6195   2.6893   2.7629   2.7677
     2.8818   2.9029   3.0051   3.0102   3.0305   3.1174   3.2416   3.3097
     3.3734   3.4701   3.5180   3.5391   3.5442   3.6183   3.7034   3.7552
     3.7574   3.8422   3.8545   3.9227   4.0090   4.0186   4.0268   4.1038
     4.1080   4.1391   4.1999   4.2054   4.2603   4.2853   4.3795   4.4444
     4.5011   4.5633   4.5806   4.6403   4.6756   4.6772   4.7418   4.7682
     4.8192   4.8798   4.9229   4.9553   4.9858   5.0054   5.0664   5.1097
     5.1123   5.1189

          k = 0.3333-0.0962 0.2308 ( 96032 PWs)   bands (ev):

  -114.1686-114.1685-114.1684-114.1684 -71.6408 -71.6408 -71.6408 -71.6408
   -71.6407 -71.6407 -71.6406 -71.6406 -71.4684 -71.4683 -71.4683 -71.4682
   -18.6900 -18.5898 -18.5675 -18.5494 -17.7457 -17.7438 -17.7407 -17.7224
   -17.3172 -17.3059 -17.2997 -17.2915 -17.2575 -17.0942 -17.0611 -17.0432
   -17.0301 -17.0296 -17.0293 -17.0293 -17.0292 -17.0208 -17.0189 -17.0169
   -16.9968 -16.9579 -16.9280 -16.8929 -16.2068 -16.1683 -16.1117 -15.8703
   -15.8133 -15.7643 -15.7471 -15.6588 -15.4883 -15.4566 -15.3979 -15.1788
   -15.1519 -15.1287 -15.1227 -15.0522 -12.8658 -12.4734 -12.3871 -12.3168
   -11.1225 -10.7964 -10.7027 -10.6216  -9.5420  -9.3676  -9.2942  -9.2279
    -8.7341  -8.7308  -8.6656  -8.6239  -8.4610  -8.4361  -8.3385  -8.3174
    -8.1788  -8.1462  -8.1045  -8.0954  -7.8192  -7.5336  -7.4428  -7.4236
    -7.1403  -7.1055  -7.0470  -7.0393  -6.3682  -6.3317  -6.3310  -6.1977
    -6.1445  -6.1343  -6.0512  -5.8829  -5.8698  -5.8264  -5.8224  -5.7798
    -5.6995  -5.6555  -5.6516  -5.6515  -5.4796  -5.4561  -5.4235  -5.4138
    -5.4118  -5.2158  -5.2129  -5.1789  -5.0001  -4.9980  -4.9901  -4.8555
    -4.7295  -4.7259  -4.6608  -4.6537  -4.5926  -4.5797  -4.5707  -4.5477
    -4.2705  -4.2525  -4.2479  -4.1312  -4.0579  -4.0574  -4.0038  -3.9577
    -3.9219  -3.8783  -3.8459  -3.8344  -3.8266  -3.8038  -3.7792  -3.7752
    -3.6852  -3.6743  -3.6646  -3.6329  -3.4667  -3.4013  -3.3831  -3.3544
    -3.2755  -3.2466  -3.1273  -3.0875  -0.9623  -0.8759  -0.7984  -0.7238
    -0.1325  -0.0838  -0.0188   0.0578   0.0993   0.2633   0.2862   0.3452
     0.4013   0.4910   0.4998   0.5063   0.5584   0.5757   0.5974   0.8612
     0.8901   0.9279   1.0359   1.0676   1.3149   1.3748   1.4413   1.6848
     1.7745   1.7899   1.8067   1.8533   2.0400   2.1518   2.1919   2.2501
     2.4832   2.5060   2.5570   2.5648   2.6195   2.6893   2.7628   2.7676
     2.8817   2.9029   3.0052   3.0101   3.0305   3.1172   3.2417   3.3097
     3.3734   3.4701   3.5180   3.5391   3.5442   3.6182   3.7034   3.7552
     3.7574   3.8423   3.8545   3.9227   4.0090   4.0188   4.0268   4.1038
     4.1079   4.1391   4.1999   4.2054   4.2603   4.2854   4.3795   4.4444
     4.5011   4.5633   4.5806   4.6402   4.6756   4.6772   4.7418   4.7682
     4.8192   4.8798   4.9229   4.9553   4.9858   5.0054   5.0664   5.1096
     5.1122   5.1190

          k =-0.0833 0.5292 0.2308 ( 96076 PWs)   bands (ev):

  -114.1686-114.1685-114.1684-114.1684 -71.6408 -71.6408 -71.6408 -71.6408
   -71.6407 -71.6407 -71.6406 -71.6406 -71.4684 -71.4683 -71.4683 -71.4682
   -18.6519 -18.6305 -18.5702 -18.5476 -17.7401 -17.7392 -17.7361 -17.7344
   -17.3200 -17.3127 -17.3100 -17.3042 -17.1874 -17.1518 -17.0578 -17.0380
   -17.0295 -17.0293 -17.0283 -17.0283 -17.0269 -17.0251 -17.0200 -17.0177
   -16.9895 -16.9826 -16.9277 -16.8816 -16.1802 -16.1290 -15.9670 -15.9183
   -15.8907 -15.8522 -15.7260 -15.7007 -15.4768 -15.4343 -15.2855 -15.2301
   -15.1948 -15.1613 -15.1001 -15.0820 -12.7042 -12.6204 -12.3873 -12.2994
   -10.9983 -10.9283 -10.6942 -10.5919  -9.4730  -9.4347  -9.2608  -9.1625
    -8.7760  -8.7571  -8.7441  -8.6894  -8.4094  -8.3740  -8.3549  -8.2967
    -8.2966  -8.2611  -8.1586  -8.1580  -7.6606  -7.5763  -7.5617  -7.4393
    -7.0693  -7.0652  -6.9339  -6.9238  -6.3294  -6.2846  -6.1989  -6.1780
    -6.1618  -6.1076  -6.0565  -5.9906  -5.8516  -5.8189  -5.7831  -5.7551
    -5.6869  -5.6797  -5.6642  -5.6543  -5.5262  -5.4950  -5.4268  -5.3926
    -5.3535  -5.3092  -5.2779  -5.2524  -4.9887  -4.9710  -4.9340  -4.9112
    -4.7019  -4.6790  -4.6373  -4.6325  -4.5519  -4.5470  -4.5180  -4.5015
    -4.3261  -4.3091  -4.2819  -4.2542  -3.9961  -3.9882  -3.9637  -3.9618
    -3.8998  -3.8905  -3.8782  -3.8469  -3.8271  -3.8205  -3.8134  -3.7459
    -3.6489  -3.6402  -3.6389  -3.6029  -3.5318  -3.4616  -3.4546  -3.4147
    -3.2895  -3.2455  -3.2391  -3.1052  -0.9011  -0.8294  -0.7870  -0.7397
    -0.2133  -0.0972   0.0190   0.0399   0.0529   0.2421   0.3294   0.4270
     0.4592   0.5000   0.5169   0.5252   0.5662   0.6110   0.7434   0.7523
     0.8845   0.9036   0.9913   1.0457   1.2866   1.4233   1.5540   1.6148
     1.7444   1.7651   1.7819   1.8300   2.0747   2.0759   2.0835   2.1740
     2.5435   2.5679   2.5801   2.6199   2.6740   2.7496   2.8214   2.8476
     2.8624   2.8832   2.9959   3.0095   3.0623   3.0987   3.1578   3.2589
     3.2707   3.4188   3.4451   3.5087   3.5114   3.6522   3.6767   3.7055
     3.7408   3.7675   3.8601   3.9163   3.9603   4.0383   4.1264   4.1974
     4.2018   4.2216   4.3388   4.3388   4.3586   4.3653   4.3915   4.4559
     4.4575   4.4690   4.6172   4.7223   4.7233   4.7292   4.7855   4.8474
     4.8648   4.8845   4.9102   5.0229   5.0427   5.0453   5.0499   5.0759
     5.1391   5.1396

          k =-0.4167 0.3368-0.2308 ( 96076 PWs)   bands (ev):

  -114.1686-114.1685-114.1684-114.1684 -71.6408 -71.6408 -71.6408 -71.6408
   -71.6407 -71.6407 -71.6406 -71.6406 -71.4684 -71.4683 -71.4683 -71.4682
   -18.6519 -18.6305 -18.5702 -18.5476 -17.7402 -17.7392 -17.7361 -17.7344
   -17.3201 -17.3124 -17.3096 -17.3047 -17.1878 -17.1513 -17.0581 -17.0378
   -17.0295 -17.0292 -17.0283 -17.0283 -17.0269 -17.0251 -17.0200 -17.0177
   -16.9895 -16.9826 -16.9279 -16.8814 -16.1816 -16.1271 -15.9690 -15.9163
   -15.8891 -15.8555 -15.7225 -15.7033 -15.4782 -15.4317 -15.2893 -15.2273
   -15.1942 -15.1624 -15.0980 -15.0838 -12.7042 -12.6205 -12.3872 -12.2994
   -10.9983 -10.9282 -10.6943 -10.5918  -9.4732  -9.4344  -9.2624  -9.1606
    -8.7649  -8.7641  -8.7399  -8.7043  -8.3804  -8.3801  -8.3448  -8.3263
    -8.3095  -8.2454  -8.1591  -8.1575  -7.6606  -7.5751  -7.5619  -7.4430
    -7.0717  -7.0532  -6.9391  -6.9259  -6.3254  -6.2908  -6.1912  -6.1781
    -6.1744  -6.1081  -6.0400  -5.9990  -5.8378  -5.8313  -5.7805  -5.7636
    -5.6975  -5.6676  -5.6580  -5.6500  -5.5216  -5.5173  -5.4061  -5.4030
    -5.3609  -5.2975  -5.2686  -5.2666  -4.9855  -4.9749  -4.9472  -4.8974
    -4.6953  -4.6634  -4.6509  -4.6421  -4.5530  -4.5451  -4.5103  -4.5097
    -4.3193  -4.3132  -4.2835  -4.2539  -3.9961  -3.9764  -3.9751  -3.9706
    -3.9161  -3.8731  -3.8563  -3.8546  -3.8448  -3.8191  -3.8022  -3.7315
    -3.6713  -3.6504  -3.6466  -3.5817  -3.5053  -3.4870  -3.4324  -3.4229
    -3.3294  -3.2339  -3.2208  -3.1072  -0.8995  -0.8315  -0.7879  -0.7385
    -0.2112  -0.1023   0.0138   0.0491   0.0619   0.2262   0.3424   0.4158
     0.4893   0.4909   0.4936   0.5238   0.5486   0.6234   0.7428   0.8181
     0.8215   0.9005   0.9951   1.0575   1.2810   1.4329   1.5606   1.6078
     1.7435   1.7660   1.7912   1.8146   2.0694   2.0820   2.1201   2.1313
     2.5399   2.5659   2.5670   2.6658   2.6781   2.7433   2.7943   2.8308
     2.8426   2.9194   3.0117   3.0316   3.0573   3.0951   3.1565   3.2491
     3.2613   3.4028   3.4561   3.4655   3.5170   3.6763   3.6960   3.7023
     3.7160   3.8182   3.8302   3.9126   3.9644   4.0571   4.1748   4.1934
     4.1953   4.2088   4.2620   4.3367   4.3766   4.3983   4.4142   4.4301
     4.4526   4.5133   4.6235   4.6903   4.6952   4.7363   4.7982   4.8058
     4.8281   4.9072   4.9932   4.9964   5.0274   5.0529   5.0594   5.0676
     5.1592   5.1611

          k = 0.5000 0.1925-0.2308 ( 96076 PWs)   bands (ev):

  -114.1686-114.1685-114.1684-114.1684 -71.6408 -71.6408 -71.6408 -71.6408
   -71.6407 -71.6407 -71.6406 -71.6406 -71.4684 -71.4683 -71.4683 -71.4682
   -18.6519 -18.6305 -18.5702 -18.5476 -17.7401 -17.7392 -17.7360 -17.7344
   -17.3201 -17.3124 -17.3096 -17.3047 -17.1878 -17.1513 -17.0581 -17.0378
   -17.0295 -17.0292 -17.0283 -17.0283 -17.0269 -17.0251 -17.0200 -17.0177
   -16.9895 -16.9826 -16.9279 -16.8814 -16.1816 -16.1271 -15.9690 -15.9163
   -15.8891 -15.8555 -15.7225 -15.7033 -15.4782 -15.4316 -15.2893 -15.2273
   -15.1942 -15.1624 -15.0980 -15.0838 -12.7042 -12.6205 -12.3872 -12.2994
   -10.9983 -10.9282 -10.6943 -10.5918  -9.4732  -9.4343  -9.2624  -9.1606
    -8.7649  -8.7641  -8.7400  -8.7043  -8.3804  -8.3800  -8.3447  -8.3263
    -8.3095  -8.2454  -8.1591  -8.1575  -7.6606  -7.5751  -7.5619  -7.4430
    -7.0716  -7.0531  -6.9391  -6.9259  -6.3254  -6.2907  -6.1912  -6.1781
    -6.1744  -6.1081  -6.0399  -5.9990  -5.8378  -5.8314  -5.7804  -5.7636
    -5.6975  -5.6677  -5.6580  -5.6501  -5.5215  -5.5172  -5.4061  -5.4030
    -5.3609  -5.2976  -5.2685  -5.2665  -4.9856  -4.9749  -4.9472  -4.8974
    -4.6954  -4.6634  -4.6509  -4.6421  -4.5530  -4.5451  -4.5103  -4.5097
    -4.3193  -4.3132  -4.2835  -4.2539  -3.9961  -3.9764  -3.9750  -3.9706
    -3.9161  -3.8731  -3.8564  -3.8547  -3.8448  -3.8192  -3.8022  -3.7315
    -3.6712  -3.6504  -3.6465  -3.5817  -3.5053  -3.4870  -3.4323  -3.4229
    -3.3294  -3.2339  -3.2208  -3.1072  -0.8995  -0.8316  -0.7878  -0.7385
    -0.2111  -0.1023   0.0138   0.0490   0.0619   0.2262   0.3424   0.4158
     0.4893   0.4909   0.4936   0.5239   0.5486   0.6234   0.7428   0.8180
     0.8214   0.9006   0.9951   1.0575   1.2810   1.4329   1.5606   1.6080
     1.7434   1.7659   1.7913   1.8147   2.0693   2.0819   2.1200   2.1312
     2.5399   2.5659   2.5669   2.6657   2.6780   2.7433   2.7944   2.8309
     2.8427   2.9194   3.0117   3.0317   3.0574   3.0951   3.1565   3.2493
     3.2613   3.4028   3.4561   3.4654   3.5171   3.6763   3.6960   3.7023
     3.7160   3.8182   3.8302   3.9126   3.9644   4.0571   4.1747   4.1934
     4.1953   4.2087   4.2619   4.3367   4.3767   4.3983   4.4143   4.4301
     4.4526   4.5131   4.6235   4.6903   4.6953   4.7363   4.7981   4.8057
     4.8281   4.9072   4.9932   4.9963   5.0274   5.0530   5.0595   5.0676
     5.1583   5.1593

          k =-0.4167-0.3368 0.2308 ( 96076 PWs)   bands (ev):

  -114.1686-114.1685-114.1684-114.1684 -71.6408 -71.6408 -71.6408 -71.6408
   -71.6407 -71.6407 -71.6406 -71.6406 -71.4684 -71.4683 -71.4683 -71.4682
   -18.6519 -18.6305 -18.5702 -18.5476 -17.7401 -17.7393 -17.7361 -17.7344
   -17.3200 -17.3127 -17.3099 -17.3042 -17.1875 -17.1518 -17.0578 -17.0380
   -17.0295 -17.0293 -17.0283 -17.0283 -17.0269 -17.0251 -17.0200 -17.0177
   -16.9895 -16.9826 -16.9277 -16.8816 -16.1802 -16.1291 -15.9670 -15.9183
   -15.8907 -15.8521 -15.7261 -15.7008 -15.4768 -15.4343 -15.2855 -15.2300
   -15.1948 -15.1613 -15.1002 -15.0820 -12.7043 -12.6204 -12.3873 -12.2994
   -10.9982 -10.9283 -10.6942 -10.5919  -9.4730  -9.4347  -9.2608  -9.1626
    -8.7760  -8.7572  -8.7442  -8.6893  -8.4094  -8.3739  -8.3549  -8.2967
    -8.2966  -8.2611  -8.1587  -8.1580  -7.6605  -7.5762  -7.5617  -7.4393
    -7.0693  -7.0652  -6.9339  -6.9238  -6.3294  -6.2846  -6.1989  -6.1780
    -6.1618  -6.1076  -6.0565  -5.9906  -5.8516  -5.8190  -5.7831  -5.7551
    -5.6869  -5.6796  -5.6641  -5.6543  -5.5260  -5.4949  -5.4268  -5.3926
    -5.3536  -5.3092  -5.2779  -5.2524  -4.9887  -4.9711  -4.9340  -4.9112
    -4.7019  -4.6790  -4.6373  -4.6325  -4.5519  -4.5470  -4.5181  -4.5016
    -4.3260  -4.3091  -4.2819  -4.2542  -3.9961  -3.9882  -3.9637  -3.9618
    -3.8998  -3.8904  -3.8781  -3.8469  -3.8271  -3.8204  -3.8134  -3.7460
    -3.6488  -3.6402  -3.6388  -3.6029  -3.5318  -3.4616  -3.4545  -3.4147
    -3.2895  -3.2455  -3.2391  -3.1052  -0.9012  -0.8295  -0.7869  -0.7396
    -0.2133  -0.0971   0.0189   0.0399   0.0529   0.2422   0.3295   0.4270
     0.4592   0.5000   0.5170   0.5252   0.5662   0.6110   0.7433   0.7523
     0.8845   0.9036   0.9913   1.0457   1.2866   1.4233   1.5541   1.6149
     1.7444   1.7651   1.7820   1.8301   2.0747   2.0757   2.0835   2.1740
     2.5434   2.5678   2.5800   2.6200   2.6739   2.7496   2.8215   2.8475
     2.8623   2.8831   2.9959   3.0095   3.0625   3.0987   3.1577   3.2589
     3.2708   3.4188   3.4451   3.5088   3.5114   3.6522   3.6767   3.7055
     3.7408   3.7676   3.8601   3.9163   3.9603   4.0383   4.1263   4.1974
     4.2018   4.2216   4.3387   4.3388   4.3586   4.3652   4.3915   4.4558
     4.4574   4.4690   4.6172   4.7223   4.7232   4.7293   4.7855   4.8473
     4.8648   4.8845   4.9102   5.0229   5.0426   5.0453   5.0497   5.0758
     5.1391   5.1396

          k = 0.5000-0.1925 0.2308 ( 96076 PWs)   bands (ev):

  -114.1686-114.1685-114.1684-114.1684 -71.6408 -71.6408 -71.6408 -71.6408
   -71.6407 -71.6407 -71.6406 -71.6406 -71.4684 -71.4683 -71.4683 -71.4682
   -18.6519 -18.6305 -18.5702 -18.5476 -17.7401 -17.7392 -17.7361 -17.7344
   -17.3199 -17.3127 -17.3099 -17.3043 -17.1875 -17.1518 -17.0578 -17.0380
   -17.0295 -17.0293 -17.0283 -17.0283 -17.0269 -17.0251 -17.0200 -17.0177
   -16.9895 -16.9826 -16.9277 -16.8816 -16.1802 -16.1291 -15.9670 -15.9183
   -15.8906 -15.8522 -15.7261 -15.7008 -15.4768 -15.4343 -15.2855 -15.2300
   -15.1948 -15.1613 -15.1002 -15.0820 -12.7042 -12.6204 -12.3873 -12.2994
   -10.9982 -10.9283 -10.6942 -10.5919  -9.4730  -9.4348  -9.2608  -9.1625
    -8.7760  -8.7571  -8.7442  -8.6893  -8.4093  -8.3740  -8.3549  -8.2967
    -8.2966  -8.2611  -8.1587  -8.1580  -7.6605  -7.5762  -7.5617  -7.4393
    -7.0694  -7.0652  -6.9339  -6.9238  -6.3295  -6.2846  -6.1989  -6.1780
    -6.1617  -6.1076  -6.0565  -5.9906  -5.8516  -5.8189  -5.7832  -5.7551
    -5.6869  -5.6796  -5.6642  -5.6542  -5.5261  -5.4950  -5.4267  -5.3926
    -5.3536  -5.3092  -5.2779  -5.2525  -4.9887  -4.9710  -4.9340  -4.9112
    -4.7019  -4.6790  -4.6373  -4.6325  -4.5519  -4.5470  -4.5180  -4.5015
    -4.3260  -4.3091  -4.2819  -4.2542  -3.9961  -3.9882  -3.9637  -3.9619
    -3.8998  -3.8904  -3.8781  -3.8468  -3.8271  -3.8204  -3.8134  -3.7460
    -3.6489  -3.6402  -3.6389  -3.6029  -3.5319  -3.4616  -3.4546  -3.4147
    -3.2895  -3.2455  -3.2391  -3.1052  -0.9011  -0.8294  -0.7870  -0.7397
    -0.2133  -0.0971   0.0189   0.0399   0.0529   0.2422   0.3294   0.4270
     0.4592   0.5000   0.5169   0.5252   0.5662   0.6110   0.7435   0.7522
     0.8844   0.9036   0.9913   1.0457   1.2866   1.4233   1.5540   1.6148
     1.7444   1.7652   1.7818   1.8300   2.0748   2.0758   2.0836   2.1741
     2.5433   2.5678   2.5801   2.6200   2.6740   2.7497   2.8214   2.8475
     2.8623   2.8830   2.9959   3.0095   3.0624   3.0987   3.1578   3.2589
     3.2707   3.4189   3.4451   3.5087   3.5115   3.6522   3.6767   3.7055
     3.7408   3.7676   3.8602   3.9163   3.9603   4.0383   4.1264   4.1974
     4.2018   4.2216   4.3388   4.3389   4.3586   4.3652   4.3915   4.4559
     4.4575   4.4690   4.6173   4.7223   4.7233   4.7293   4.7855   4.8474
     4.8648   4.8845   4.9102   5.0230   5.0427   5.0453   5.0498   5.0760
     5.1393   5.1396

          k =-0.0833-0.4330 0.2308 ( 96090 PWs)   bands (ev):

  -114.1686-114.1685-114.1684-114.1684 -71.6408 -71.6408 -71.6408 -71.6408
   -71.6407 -71.6407 -71.6406 -71.6406 -71.4684 -71.4683 -71.4683 -71.4682
   -18.6722 -18.6093 -18.5693 -18.5482 -17.7429 -17.7416 -17.7377 -17.7287
   -17.3153 -17.3139 -17.3073 -17.2987 -17.2241 -17.1189 -17.0598 -17.0393
   -17.0298 -17.0292 -17.0290 -17.0286 -17.0283 -17.0231 -17.0195 -17.0174
   -16.9939 -16.9722 -16.9283 -16.8853 -16.1935 -16.1404 -16.0452 -15.8961
   -15.8437 -15.8141 -15.7424 -15.6804 -15.4842 -15.4367 -15.3482 -15.1877
   -15.1718 -15.1600 -15.1132 -15.0676 -12.7880 -12.5420 -12.3874 -12.3056
   -11.0645 -10.8592 -10.6978 -10.6024  -9.5099  -9.3976  -9.2770  -9.1856
    -8.7644  -8.7351  -8.7069  -8.6899  -8.4190  -8.3898  -8.3551  -8.3298
    -8.2529  -8.2004  -8.1358  -8.1342  -7.7441  -7.5527  -7.4966  -7.4437
    -7.0928  -7.0574  -6.9892  -6.9706  -6.3348  -6.3103  -6.2585  -6.1853
    -6.1827  -6.0804  -6.0634  -5.9377  -5.8438  -5.8381  -5.7892  -5.7850
    -5.6890  -5.6650  -5.6524  -5.6507  -5.5111  -5.4945  -5.4217  -5.4005
    -5.3938  -5.2555  -5.2392  -5.2351  -4.9873  -4.9850  -4.9815  -4.8694
    -4.7018  -4.6956  -4.6527  -4.6470  -4.5711  -4.5539  -4.5395  -4.5279
    -4.2793  -4.2788  -4.2513  -4.2343  -4.0326  -3.9933  -3.9875  -3.9632
    -3.9501  -3.8599  -3.8554  -3.8455  -3.8403  -3.8153  -3.7565  -3.7304
    -3.7085  -3.6972  -3.6527  -3.5889  -3.4649  -3.4346  -3.3976  -3.3948
    -3.3924  -3.2335  -3.1480  -3.1164  -0.8896  -0.8636  -0.8213  -0.7178
    -0.1781  -0.0807  -0.0273   0.0676   0.0893   0.2268   0.3299   0.3930
     0.4440   0.4800   0.5152   0.5172   0.5189   0.6131   0.7178   0.7759
     0.8632   0.9360   1.0042   1.0693   1.2897   1.4207   1.4937   1.6505
     1.7530   1.7701   1.7812   1.8404   2.0782   2.1085   2.1233   2.1876
     2.5087   2.5374   2.5663   2.6086   2.6796   2.7435   2.7601   2.7912
     2.8460   2.9493   2.9900   3.0272   3.0718   3.1279   3.1997   3.2338
     3.2939   3.3964   3.4786   3.5091   3.5290   3.6324   3.6856   3.7160
[...]
     4.5012   4.5260   4.5537   4.6409   4.6648   4.7125   4.7975   4.8248
     4.8462   4.8927   4.9265   4.9282   5.0243   5.0442   5.0520   5.0706
     5.1289   5.1864

          k =-0.1667 0.3849 0.2308 ( 96066 PWs)   bands (ev):

  -114.1686-114.1685-114.1684-114.1684 -71.6408 -71.6408 -71.6408 -71.6408
   -71.6407 -71.6407 -71.6406 -71.6406 -71.4684 -71.4683 -71.4683 -71.4682
   -18.6765 -18.5961 -18.5825 -18.5435 -17.7438 -17.7431 -17.7371 -17.7271
   -17.3158 -17.3156 -17.3030 -17.2985 -17.2311 -17.0986 -17.0763 -17.0361
   -17.0298 -17.0296 -17.0290 -17.0288 -17.0286 -17.0218 -17.0207 -17.0167
   -16.9947 -16.9624 -16.9476 -16.8747 -16.2061 -16.1172 -16.0792 -15.9087
   -15.7965 -15.7961 -15.7727 -15.6771 -15.4924 -15.4165 -15.3760 -15.1946
   -15.1619 -15.1392 -15.1278 -15.0625 -12.8061 -12.4923 -12.4397 -12.2880
   -11.0780 -10.8109 -10.7556 -10.5821  -9.5170  -9.3674  -9.3240  -9.1716
    -8.7718  -8.7505  -8.7023  -8.5959  -8.4948  -8.4225  -8.3410  -8.3044
    -8.2411  -8.1690  -8.1451  -8.1346  -7.7580  -7.5915  -7.4569  -7.4169
    -7.0857  -7.0846  -6.9953  -6.9880  -6.3338  -6.2989  -6.2820  -6.2059
    -6.1379  -6.1251  -6.0578  -5.9252  -5.8665  -5.8153  -5.8082  -5.7715
    -5.6834  -5.6758  -5.6505  -5.6434  -5.4879  -5.4742  -5.4261  -5.4214
    -5.4131  -5.2588  -5.2450  -5.2146  -4.9954  -4.9767  -4.9732  -4.8635
    -4.7246  -4.7193  -4.6418  -4.6201  -4.5797  -4.5552  -4.5521  -4.5340
    -4.2847  -4.2639  -4.2450  -4.2086  -4.0492  -4.0261  -3.9664  -3.9556
    -3.9350  -3.9112  -3.8695  -3.8392  -3.8367  -3.7929  -3.7589  -3.7426
    -3.6972  -3.6936  -3.6497  -3.6016  -3.4838  -3.4310  -3.3921  -3.3734
    -3.3224  -3.3130  -3.1288  -3.0806  -0.9086  -0.8878  -0.7716  -0.7390
    -0.2040  -0.0430   0.0023   0.0258   0.0391   0.2770   0.3513   0.3761
     0.4578   0.4965   0.5085   0.5369   0.5447   0.5797   0.5888   0.7656
     0.9080   0.9561   1.0340   1.0445   1.2716   1.4461   1.4883   1.6782
     1.7504   1.7677   1.7844   1.8472   2.0553   2.1265   2.1561   2.2137
     2.5023   2.5417   2.5504   2.5928   2.6392   2.7557   2.7736   2.8038
     2.8783   2.9374   2.9862   3.0097   3.0547   3.0752   3.2338   3.2390
     3.3651   3.3946   3.4917   3.5079   3.5773   3.5958   3.6187   3.7415
     3.7803   3.8364   3.8424   3.8777   4.0133   4.0492   4.0711   4.0943
     4.1422   4.2428   4.2506   4.2542   4.3318   4.3385   4.3576   4.4729
     4.5012   4.5260   4.5537   4.6409   4.6648   4.7125   4.7975   4.8248
     4.8462   4.8928   4.9265   4.9282   5.0243   5.0442   5.0519   5.0706
     5.1289   5.1858

          k =-0.2500-0.1443 0.2308 ( 96098 PWs)   bands (ev):

  -114.1686-114.1685-114.1684-114.1684 -71.6408 -71.6408 -71.6408 -71.6408
   -71.6407 -71.6407 -71.6406 -71.6406 -71.4684 -71.4683 -71.4683 -71.4682
   -18.6995 -18.5822 -18.5568 -18.5567 -17.7471 -17.7441 -17.7439 -17.7186
   -17.3184 -17.2971 -17.2963 -17.2866 -17.2762 -17.0865 -17.0531 -17.0523
   -17.0303 -17.0298 -17.0297 -17.0296 -17.0295 -17.0199 -17.0174 -17.0174
   -16.9980 -16.9510 -16.9117 -16.9110 -16.2048 -16.2012 -16.1436 -15.8328
   -15.8258 -15.7629 -15.7109 -15.6473 -15.4849 -15.4788 -15.4238 -15.1632
   -15.1611 -15.1315 -15.0945 -15.0452 -12.9089 -12.4485 -12.3502 -12.3501
   -11.1533 -10.7743 -10.6649 -10.6647  -9.5589  -9.3603  -9.2777  -9.2747
    -8.7172  -8.6837  -8.6484  -8.6363  -8.4883  -8.3852  -8.3419  -8.3261
    -8.1292  -8.1271  -8.0776  -8.0641  -7.8607  -7.4732  -7.4647  -7.4199
    -7.1622  -7.1243  -7.1014  -7.0994  -6.3802  -6.3708  -6.3649  -6.1870
    -6.1611  -6.1314  -6.0579  -5.8648  -5.8541  -5.8437  -5.8298  -5.7850
    -5.7109  -5.6539  -5.6467  -5.6434  -5.4602  -5.4455  -5.4372  -5.4069
    -5.4040  -5.1943  -5.1753  -5.1608  -5.0127  -5.0022  -4.9959  -4.8421
    -4.7398  -4.7084  -4.6879  -4.6850  -4.6068  -4.5963  -4.5878  -4.5658
    -4.2624  -4.2592  -4.2454  -4.0819  -4.0771  -4.0604  -4.0429  -3.9570
    -3.9161  -3.8589  -3.8481  -3.8350  -3.8167  -3.8003  -3.7908  -3.7504
    -3.6952  -3.6774  -3.6695  -3.6456  -3.4295  -3.4036  -3.3747  -3.3442
    -3.2010  -3.1870  -3.1823  -3.0514  -1.0308  -0.8326  -0.8283  -0.7248
    -0.1259  -0.0608  -0.0444   0.0797   0.1564   0.1799   0.2993   0.3202
     0.3451   0.4546   0.5002   0.5098   0.5579   0.5821   0.6088   0.8710
     0.9115   0.9480   1.0275   1.0858   1.3328   1.3479   1.4124   1.7010
     1.7914   1.8277   1.8310   1.8454   2.0250   2.1783   2.2117   2.2574
     2.4743   2.4880   2.5397   2.5930   2.6012   2.6459   2.7385   2.7659
     2.8448   2.8795   2.9714   3.0247   3.0743   3.1417   3.2120   3.3634
     3.4116   3.4144   3.5255   3.6060   3.6302   3.6417   3.6514   3.7750
     3.8198   3.8478   3.8907   3.9363   3.9422   3.9982   4.0106   4.0310
     4.0515   4.1633   4.1732   4.1890   4.2172   4.2291   4.3780   4.4483
     4.4814   4.5418   4.5710   4.5745   4.6180   4.6329   4.6943   4.8294
     4.8378   4.8544   4.9507   4.9630   4.9662   4.9847   5.0141   5.0148
     5.0843   5.1848

          k = 0.0000-0.2887-0.2308 ( 96098 PWs)   bands (ev):

  -114.1686-114.1685-114.1684-114.1684 -71.6408 -71.6408 -71.6408 -71.6408
   -71.6407 -71.6407 -71.6406 -71.6406 -71.4684 -71.4683 -71.4683 -71.4682
   -18.6995 -18.5822 -18.5567 -18.5567 -17.7471 -17.7441 -17.7440 -17.7186
   -17.3184 -17.2971 -17.2962 -17.2867 -17.2761 -17.0866 -17.0530 -17.0522
   -17.0303 -17.0298 -17.0297 -17.0296 -17.0295 -17.0199 -17.0174 -17.0174
   -16.9980 -16.9510 -16.9117 -16.9111 -16.2048 -16.2012 -16.1437 -15.8328
   -15.8258 -15.7629 -15.7109 -15.6473 -15.4849 -15.4788 -15.4238 -15.1633
   -15.1611 -15.1314 -15.0945 -15.0452 -12.9089 -12.4485 -12.3502 -12.3502
   -11.1533 -10.7743 -10.6649 -10.6647  -9.5589  -9.3603  -9.2777  -9.2748
    -8.7172  -8.6838  -8.6484  -8.6363  -8.4884  -8.3852  -8.3419  -8.3261
    -8.1292  -8.1271  -8.0776  -8.0640  -7.8607  -7.4732  -7.4647  -7.4199
    -7.1622  -7.1244  -7.1014  -7.0993  -6.3802  -6.3708  -6.3649  -6.1870
    -6.1611  -6.1315  -6.0579  -5.8647  -5.8541  -5.8436  -5.8299  -5.7850
    -5.7110  -5.6539  -5.6468  -5.6434  -5.4602  -5.4455  -5.4373  -5.4068
    -5.4039  -5.1943  -5.1753  -5.1608  -5.0128  -5.0021  -4.9959  -4.8421
    -4.7398  -4.7084  -4.6879  -4.6850  -4.6069  -4.5963  -4.5877  -4.5658
    -4.2624  -4.2592  -4.2454  -4.0818  -4.0771  -4.0604  -4.0430  -3.9570
    -3.9161  -3.8589  -3.8481  -3.8350  -3.8168  -3.8003  -3.7908  -3.7504
    -3.6952  -3.6773  -3.6695  -3.6456  -3.4295  -3.4035  -3.3747  -3.3442
    -3.2010  -3.1871  -3.1822  -3.0514  -1.0308  -0.8325  -0.8283  -0.7249
    -0.1259  -0.0608  -0.0444   0.0798   0.1564   0.1799   0.2994   0.3201
     0.3451   0.4546   0.5002   0.5098   0.5579   0.5821   0.6089   0.8710
     0.9116   0.9480   1.0275   1.0858   1.3328   1.3480   1.4123   1.7008
     1.7913   1.8277   1.8311   1.8454   2.0251   2.1784   2.2118   2.2574
     2.4744   2.4879   2.5397   2.5931   2.6013   2.6459   2.7385   2.7660
     2.8448   2.8795   2.9714   3.0248   3.0743   3.1415   3.2120   3.3634
     3.4115   3.4144   3.5255   3.6060   3.6303   3.6417   3.6514   3.7749
     3.8198   3.8479   3.8907   3.9363   3.9422   3.9982   4.0105   4.0310
     4.0515   4.1633   4.1732   4.1891   4.2172   4.2291   4.3780   4.4483
     4.4814   4.5418   4.5710   4.5745   4.6180   4.6329   4.6943   4.8294
     4.8379   4.8545   4.9508   4.9630   4.9662   4.9847   5.0142   5.0148
     5.0844   5.2086

          k =-0.4167 0.7217 0.2308 ( 96084 PWs)   bands (ev):

  -114.1686-114.1685-114.1684-114.1684 -71.6408 -71.6408 -71.6408 -71.6408
   -71.6407 -71.6407 -71.6406 -71.6406 -71.4684 -71.4683 -71.4683 -71.4682
   -18.6372 -18.6371 -18.5858 -18.5408 -17.7408 -17.7374 -17.7373 -17.7336
   -17.3249 -17.3111 -17.3092 -17.3086 -17.1606 -17.1599 -17.0759 -17.0328
   -17.0292 -17.0292 -17.0284 -17.0283 -17.0259 -17.0258 -17.0216 -17.0170
   -16.9850 -16.9850 -16.9496 -16.8627 -16.1911 -16.0846 -15.9461 -15.9387
   -15.9360 -15.8220 -15.7270 -15.7225 -15.4873 -15.3972 -15.2714 -15.2667
   -15.2081 -15.1441 -15.0958 -15.0931 -12.6449 -12.6448 -12.4458 -12.2706
   -10.9477 -10.9475 -10.7566 -10.5551  -9.4429  -9.4424  -9.3103  -9.1125
    -8.7913  -8.7685  -8.7606  -8.6500  -8.4534  -8.3510  -8.3435  -8.3384
    -8.2901  -8.2471  -8.1832  -8.1827  -7.6216  -7.5942  -7.5932  -7.4282
    -7.0602  -7.0271  -6.9338  -6.9166  -6.3065  -6.2487  -6.2006  -6.1529
    -6.1526  -6.1473  -6.0472  -6.0283  -5.8475  -5.8100  -5.7837  -5.7543
    -5.7121  -5.6600  -5.6449  -5.6317  -5.5261  -5.5064  -5.4395  -5.3886
    -5.3522  -5.3390  -5.2991  -5.2771  -4.9887  -4.9551  -4.9191  -4.9005
    -4.7088  -4.6738  -4.6495  -4.6060  -4.5456  -4.5356  -4.5145  -4.5031
    -4.3285  -4.3204  -4.3007  -4.2554  -3.9995  -3.9909  -3.9870  -3.9634
    -3.9089  -3.8925  -3.8705  -3.8358  -3.8314  -3.8272  -3.7963  -3.7119
    -3.6609  -3.6553  -3.6194  -3.5957  -3.5460  -3.5149  -3.4416  -3.4056
    -3.2902  -3.2839  -3.2436  -3.0556  -0.9250  -0.7983  -0.7645  -0.7629
    -0.2678  -0.0548  -0.0063   0.0164   0.0264   0.3057   0.3310   0.4457
     0.4628   0.4995   0.5059   0.5373   0.5783   0.6028   0.6762   0.7618
     0.8422   0.9517   1.0010   1.0604   1.2264   1.5211   1.6171   1.6291
     1.7372   1.7609   1.7835   1.7981   2.0726   2.0763   2.0854   2.1426
     2.5428   2.5714   2.5716   2.6600   2.7231   2.7330   2.8484   2.8499
     2.8654   2.9112   2.9603   3.0289   3.0676   3.0725   3.2216   3.2243
     3.2255   3.3870   3.3941   3.4111   3.5620   3.5688   3.6973   3.7242
     3.7509   3.8094   3.8600   3.8726   4.0137   4.1229   4.1277   4.1355
     4.1912   4.2036   4.2534   4.2930   4.3315   4.4067   4.4597   4.4931
     4.4987   4.5445   4.6152   4.6635   4.6979   4.7107   4.7981   4.8039
     4.8132   4.8596   4.9111   4.9794   5.0533   5.1050   5.1135   5.1336
     5.1343   5.2094

          k = 0.8333 0.0000-0.2308 ( 96084 PWs)   bands (ev):

  -114.1686-114.1685-114.1684-114.1684 -71.6408 -71.6408 -71.6408 -71.6408
   -71.6407 -71.6407 -71.6406 -71.6406 -71.4684 -71.4683 -71.4683 -71.4682
   -18.6372 -18.6371 -18.5858 -18.5408 -17.7409 -17.7374 -17.7373 -17.7336
   -17.3249 -17.3111 -17.3092 -17.3086 -17.1606 -17.1599 -17.0759 -17.0328
   -17.0292 -17.0292 -17.0284 -17.0283 -17.0259 -17.0258 -17.0216 -17.0170
   -16.9850 -16.9850 -16.9496 -16.8627 -16.1911 -16.0846 -15.9461 -15.9388
   -15.9361 -15.8220 -15.7270 -15.7225 -15.4873 -15.3972 -15.2714 -15.2668
   -15.2081 -15.1441 -15.0958 -15.0931 -12.6449 -12.6448 -12.4458 -12.2706
   -10.9477 -10.9476 -10.7566 -10.5551  -9.4429  -9.4425  -9.3103  -9.1124
    -8.7914  -8.7685  -8.7606  -8.6500  -8.4534  -8.3511  -8.3435  -8.3385
    -8.2902  -8.2471  -8.1832  -8.1826  -7.6216  -7.5942  -7.5932  -7.4282
    -7.0602  -7.0271  -6.9338  -6.9167  -6.3065  -6.2487  -6.2006  -6.1528
    -6.1526  -6.1473  -6.0471  -6.0283  -5.8475  -5.8099  -5.7837  -5.7543
    -5.7121  -5.6600  -5.6450  -5.6317  -5.5263  -5.5065  -5.4395  -5.3886
    -5.3522  -5.3389  -5.2991  -5.2770  -4.9886  -4.9550  -4.9192  -4.9005
    -4.7088  -4.6738  -4.6495  -4.6060  -4.5456  -4.5356  -4.5145  -4.5030
    -4.3286  -4.3204  -4.3007  -4.2554  -3.9995  -3.9909  -3.9870  -3.9634
    -3.9089  -3.8925  -3.8706  -3.8358  -3.8314  -3.8272  -3.7963  -3.7119
    -3.6610  -3.6554  -3.6194  -3.5957  -3.5460  -3.5148  -3.4417  -3.4056
    -3.2902  -3.2839  -3.2436  -3.0556  -0.9250  -0.7983  -0.7645  -0.7630
    -0.2679  -0.0549  -0.0063   0.0165   0.0265   0.3057   0.3310   0.4457
     0.4628   0.4995   0.5059   0.5373   0.5782   0.6028   0.6762   0.7618
     0.8423   0.9517   1.0010   1.0604   1.2265   1.5211   1.6171   1.6289
     1.7373   1.7609   1.7834   1.7980   2.0727   2.0763   2.0854   2.1426
     2.5429   2.5715   2.5716   2.6599   2.7231   2.7330   2.8485   2.8498
     2.8655   2.9113   2.9602   3.0288   3.0676   3.0725   3.2216   3.2243
     3.2253   3.3870   3.3941   3.4110   3.5619   3.5688   3.6972   3.7242
     3.7509   3.8094   3.8600   3.8725   4.0137   4.1229   4.1277   4.1357
     4.1912   4.2035   4.2533   4.2930   4.3316   4.4067   4.4598   4.4931
     4.4987   4.5444   4.6152   4.6635   4.6979   4.7107   4.7981   4.8039
     4.8131   4.8596   4.9111   4.9794   5.0532   5.1050   5.1135   5.1338
     5.1346   5.2113

          k =-0.4167-0.2406 0.2308 ( 96042 PWs)   bands (ev):

  -114.1686-114.1685-114.1684-114.1684 -71.6408 -71.6408 -71.6408 -71.6408
   -71.6407 -71.6407 -71.6406 -71.6406 -71.4684 -71.4683 -71.4683 -71.4682
   -18.6638 -18.6209 -18.5574 -18.5573 -17.7413 -17.7390 -17.7389 -17.7313
   -17.3142 -17.3137 -17.3116 -17.3004 -17.2094 -17.1377 -17.0466 -17.0462
   -17.0296 -17.0292 -17.0285 -17.0284 -17.0277 -17.0242 -17.0186 -17.0185
   -16.9923 -16.9786 -16.9050 -16.9045 -16.1665 -16.1632 -16.0051 -15.8826
   -15.8774 -15.8476 -15.7301 -15.6871 -15.4639 -15.4599 -15.3138 -15.1954
   -15.1780 -15.1763 -15.1056 -15.0739 -12.7531 -12.5855 -12.3394 -12.3394
   -11.0376 -10.8987 -10.6413 -10.6411  -9.4954  -9.4202  -9.2206  -9.2171
    -8.7587  -8.7421  -8.7219  -8.7172  -8.4024  -8.3771  -8.3465  -8.3312
    -8.2617  -8.2450  -8.1425  -8.1397  -7.7123  -7.5433  -7.4939  -7.4911
    -7.0885  -7.0668  -6.9494  -6.9478  -6.3283  -6.3183  -6.2146  -6.1929
    -6.1736  -6.0781  -6.0664  -5.9599  -5.8515  -5.8265  -5.7821  -5.7741
    -5.6815  -5.6712  -5.6652  -5.6637  -5.5248  -5.4904  -5.4218  -5.3933
    -5.3724  -5.2688  -5.2615  -5.2389  -4.9884  -4.9808  -4.9657  -4.8929
    -4.6876  -4.6823  -4.6694  -4.6344  -4.5586  -4.5553  -4.5289  -4.5112
    -4.3078  -4.2731  -4.2658  -4.2635  -4.0056  -3.9947  -3.9654  -3.9647
    -3.9248  -3.8799  -3.8552  -3.8466  -3.8349  -3.8011  -3.7885  -3.7723
    -3.6812  -3.6681  -3.6331  -3.5914  -3.5007  -3.4590  -3.4187  -3.4078
    -3.3473  -3.1960  -3.1734  -3.1679  -0.8655  -0.8617  -0.8248  -0.7203
    -0.1476  -0.1405  -0.0020   0.0607   0.1334   0.1579   0.3588   0.3859
     0.4563   0.4845   0.5040   0.5215   0.5694   0.6031   0.7509   0.8205
     0.8472   0.8763   1.0190   1.0400   1.3422   1.3574   1.5124   1.6233
     1.7600   1.7622   1.7755   1.8417   2.0806   2.0829   2.0985   2.1871
     2.5220   2.5677   2.5708   2.6290   2.6355   2.7680   2.7822   2.7913
     2.8653   2.9273   2.9726   3.0106   3.1065   3.1085   3.1415   3.3101
     3.3212   3.3624   3.3921   3.5516   3.6047   3.6119   3.6470   3.7342
     3.7696   3.8510   3.8579   3.8778   3.9498   3.9656   4.1294   4.2047
     4.2077   4.2275   4.2835   4.3162   4.3435   4.3445   4.3702   4.4736
     4.4751   4.5245   4.6161   4.6731   4.7382   4.7894   4.8013   4.8577
     4.8596   4.8799   4.8948   4.9559   4.9698   5.0187   5.0235   5.0306
     5.0715   5.1786

          k = 0.0000-0.4811-0.2308 ( 96042 PWs)   bands (ev):

  -114.1686-114.1685-114.1684-114.1684 -71.6408 -71.6408 -71.6408 -71.6408
   -71.6407 -71.6407 -71.6406 -71.6406 -71.4684 -71.4683 -71.4683 -71.4682
   -18.6638 -18.6209 -18.5574 -18.5574 -17.7413 -17.7390 -17.7389 -17.7313
   -17.3142 -17.3137 -17.3116 -17.3004 -17.2094 -17.1377 -17.0466 -17.0462
   -17.0296 -17.0292 -17.0285 -17.0284 -17.0277 -17.0242 -17.0186 -17.0185
   -16.9923 -16.9786 -16.9050 -16.9045 -16.1665 -16.1632 -16.0051 -15.8826
   -15.8774 -15.8477 -15.7301 -15.6870 -15.4639 -15.4599 -15.3139 -15.1955
   -15.1780 -15.1763 -15.1056 -15.0738 -12.7531 -12.5855 -12.3394 -12.3394
   -11.0377 -10.8987 -10.6412 -10.6411  -9.4954  -9.4202  -9.2205  -9.2172
    -8.7586  -8.7422  -8.7218  -8.7172  -8.4025  -8.3771  -8.3466  -8.3312
    -8.2617  -8.2450  -8.1424  -8.1396  -7.7123  -7.5434  -7.4940  -7.4911
    -7.0885  -7.0668  -6.9494  -6.9478  -6.3283  -6.3183  -6.2146  -6.1929
    -6.1736  -6.0781  -6.0665  -5.9598  -5.8514  -5.8264  -5.7821  -5.7741
    -5.6815  -5.6713  -5.6653  -5.6637  -5.5249  -5.4905  -5.4218  -5.3933
    -5.3723  -5.2687  -5.2614  -5.2389  -4.9883  -4.9807  -4.9658  -4.8929
    -4.6876  -4.6823  -4.6694  -4.6345  -4.5586  -4.5553  -4.5289  -4.5112
    -4.3079  -4.2732  -4.2658  -4.2635  -4.0056  -3.9947  -3.9654  -3.9647
    -3.9248  -3.8799  -3.8553  -3.8467  -3.8349  -3.8011  -3.7885  -3.7722
    -3.6812  -3.6681  -3.6331  -3.5913  -3.5007  -3.4590  -3.4187  -3.4078
    -3.3473  -3.1960  -3.1734  -3.1679  -0.8654  -0.8616  -0.8248  -0.7203
    -0.1476  -0.1405  -0.0019   0.0608   0.1333   0.1579   0.3587   0.3859
     0.4563   0.4845   0.5040   0.5215   0.5693   0.6030   0.7510   0.8206
     0.8472   0.8763   1.0190   1.0400   1.3422   1.3575   1.5124   1.6231
     1.7600   1.7623   1.7753   1.8417   2.0807   2.0829   2.0986   2.1871
     2.5221   2.5677   2.5708   2.6291   2.6356   2.7681   2.7821   2.7913
     2.8653   2.9274   2.9726   3.0105   3.1065   3.1083   3.1415   3.3101
     3.3212   3.3624   3.3921   3.5517   3.6047   3.6119   3.6470   3.7341
     3.7696   3.8510   3.8579   3.8778   3.9499   3.9656   4.1295   4.2048
     4.2077   4.2274   4.2835   4.3163   4.3435   4.3446   4.3703   4.4737
     4.4751   4.5246   4.6161   4.6731   4.7382   4.7895   4.8013   4.8577
     4.8596   4.8799   4.8948   4.9559   4.9698   5.0188   5.0235   5.0306
     5.0715   5.1788

     the Fermi energy is    -2.0045 ev

!    total energy              =   -2852.81351462 Ry
     estimated scf accuracy    <          2.2E-09 Ry
     smearing contrib. (-TS)   =      -0.00000000 Ry
     internal energy E=F+TS    =   -2852.81351462 Ry

     The total energy is F=E-TS. E is the sum of the following terms:
     one-electron contribution =  -16438.35883922 Ry
     hartree contribution      =    8265.98228139 Ry
     xc contribution           =    -557.22420819 Ry
     ewald contribution        =    5877.10674087 Ry
     Dispersion Correction     =      -0.31948947 Ry

     convergence has been achieved in  14 iterations

     Writing all to output data dir ./test.save/ :
     XML data file, charge density, pseudopotentials, collected wavefunctions
 
     init_run     :     16.90s CPU     17.34s WALL (       1 calls)
     electrons    :    886.76s CPU    896.99s WALL (       1 calls)

     Called by init_run:
     wfcinit      :     15.78s CPU     16.06s WALL (       1 calls)
     potinit      :      0.06s CPU      0.09s WALL (       1 calls)
     hinit0       :      0.05s CPU      0.07s WALL (       1 calls)

     Called by electrons:
     c_bands      :    795.04s CPU    801.51s WALL (      14 calls)
     sum_band     :     87.06s CPU     89.53s WALL (      14 calls)
     v_of_rho     :      0.60s CPU      0.70s WALL (      15 calls)
     newd         :      4.14s CPU      5.30s WALL (      15 calls)
     mix_rho      :      0.14s CPU      0.22s WALL (      14 calls)
     energy_londo :      0.01s CPU      0.01s WALL (       1 calls)

     Called by c_bands:
     init_us_2    :     15.50s CPU     15.60s WALL (    1566 calls)
     cegterg      :    755.09s CPU    761.16s WALL (     756 calls)

     Called by *egterg:
     cdiaghg      :    112.64s CPU    113.90s WALL (    5031 calls)
     h_psi        :    364.47s CPU    367.42s WALL (    5085 calls)
     s_psi        :     69.27s CPU     69.61s WALL (    5085 calls)
     g_psi        :      1.82s CPU      1.83s WALL (    4275 calls)

     Called by h_psi:
     h_psi:calbec :     74.53s CPU     74.95s WALL (    5085 calls)
     vloc_psi     :    215.55s CPU    217.55s WALL (    5085 calls)
     add_vuspsi   :     70.78s CPU     71.24s WALL (    5085 calls)

     General routines
     calbec       :    100.19s CPU    100.74s WALL (    5841 calls)
     fft          :      0.73s CPU      0.81s WALL (     193 calls)
     ffts         :      0.02s CPU      0.03s WALL (      29 calls)
     fftw         :    211.57s CPU    213.49s WALL ( 1176770 calls)
     interpolate  :      0.03s CPU      0.04s WALL (      15 calls)
 
     Parallel routines
 
     PWSCF        :    911.90s CPU    928.43s WALL

 
   This run was terminated on:  11:35:13  15Dec2025            

=------------------------------------------------------------------------------=
   JOB DONE.
=------------------------------------------------------------------------------=
