
     Program BANDS v.7.3.1 starts on 14Feb2026 at  0:18:41 

     This program is part of the open-source Quantum ESPRESSO suite
     for quantum simulation of materials; please cite
         "P. Giannozzi et al., J. Phys.:Condens. Matter 21 395502 (2009);
         "P. Giannozzi et al., J. Phys.:Condens. Matter 29 465901 (2017);
         "P. Giannozzi et al., J. Chem. Phys. 152 154105 (2020);
          URL http://www.quantum-espresso.org", 
     in publications or presentations arising from this work. More details at
     http://www.quantum-espresso.org/quote

     Parallel version (MPI & OpenMP), running on      64 processor cores
     Number of MPI processes:                64
     Threads/MPI process:                     1

     MPI processes distributed on     1 nodes
     R & G space division:  proc/nbgrp/npool/nimage =      64
     419934 MiB available memory on the printing compute node when the environment starts
 

     Reading xml data from directory:

     ./test.save/

     IMPORTANT: XC functional enforced from input :
     Exchange-correlation= PBE
                           (   1   4   3   4   0   0   0)
     Any further DFT definition will be discarded
     Please, verify this is what you really want

 
     Parallelization info
     --------------------
     sticks:   dense  smooth     PW     G-vecs:    dense   smooth      PW
     Min         180      90     23                33956    12002    1631
     Max         181      91     24                33969    12012    1652
     Sum       11557    5773   1531              2173495   768463  105205
 
     Using Slab Decomposition
 

     negative rho (up, down):  3.553E-03 0.000E+00
     Reading collected, re-writing distributed wavefunctions
     high-symmetry point:  0.0000 0.0000 0.0000   x coordinate   0.0000
     high-symmetry point:  0.5000 0.2887 0.0000   x coordinate   0.5774
     high-symmetry point:  0.3333 0.5773 0.0000   x coordinate   0.9107
     high-symmetry point:  0.0000 0.0000 0.0000   x coordinate   1.5773
     high-symmetry point:  0.0000 0.0000 0.2308   x coordinate   1.8081
     high-symmetry point:  0.5000 0.2887 0.2308   x coordinate   2.3854
     high-symmetry point:  0.3333 0.5773 0.2308   x coordinate   2.7187
     high-symmetry point:  0.0000 0.0000 0.2308   x coordinate   3.3853
     high-symmetry point:  0.5000 0.2887 0.2308   x coordinate   3.9627
     high-symmetry point:  0.5000 0.2887 0.0000   x coordinate   4.1935
     high-symmetry point:  0.3333 0.5773 0.0000   x coordinate   4.5268
     high-symmetry point:  0.3333 0.5773 0.2308   x coordinate   4.7577

     Plottable bands (eV) written to file bands.dat.gnu
     Bands written to file bands.dat

 **************************************************************************

                    xk=(   0.00000,   0.00000,   0.00000  )

     point group C_1 (1)    
     there are  1 classes
     the character table:

       E    
A      1.00

     the symmetry operations in each class and the name of the first element:

     E        1
                                                                 

     Band symmetry, C_1 (1)     point group:

     e(  1 -  1) =   -113.48927  eV     1   --> A              
     e(  2 -  2) =   -113.48401  eV     1   --> A              
     e(  3 -  3) =   -113.48041  eV     1   --> A              
     e(  4 -  4) =   -113.29672  eV     1   --> A              
     e(  5 -  5) =    -70.96261  eV     1   --> A              
     e(  6 -  6) =    -70.95760  eV     1   --> A              
     e(  7 -  7) =    -70.95737  eV     1   --> A              
     e(  8 -  8) =    -70.95336  eV     1   --> A              
     e(  9 -  9) =    -70.95216  eV     1   --> A              
     e( 10 - 10) =    -70.95105  eV     1   --> A              
     e( 11 - 11) =    -70.81236  eV     1   --> A              
     e( 12 - 12) =    -70.80832  eV     1   --> A              
     e( 13 - 13) =    -70.79359  eV     1   --> A              
     e( 14 - 14) =    -70.78595  eV     1   --> A              
     e( 15 - 15) =    -70.78304  eV     1   --> A              
     e( 16 - 16) =    -70.51460  eV     1   --> A              
     e( 17 - 17) =    -25.14370  eV     1   --> A              
     e( 18 - 18) =    -22.86430  eV     1   --> A              
     e( 19 - 19) =    -20.41654  eV     1   --> A              
     e( 20 - 20) =    -18.41770  eV     1   --> A              
     e( 21 - 21) =    -18.03831  eV     1   --> A              
     e( 22 - 22) =    -17.87796  eV     1   --> A              
     e( 23 - 23) =    -17.87429  eV     1   --> A              
     e( 24 - 24) =    -17.86811  eV     1   --> A              
     e( 25 - 25) =    -17.07452  eV     1   --> A              
     e( 26 - 26) =    -17.06917  eV     1   --> A              
     e( 27 - 27) =    -17.06459  eV     1   --> A              
     e( 28 - 28) =    -17.02875  eV     1   --> A              
     e( 29 - 29) =    -16.78831  eV     1   --> A              
     e( 30 - 30) =    -16.64280  eV     1   --> A              
     e( 31 - 31) =    -16.63613  eV     1   --> A              
     e( 32 - 32) =    -16.59532  eV     1   --> A              
     e( 33 - 33) =    -16.59197  eV     1   --> A              
     e( 34 - 34) =    -16.58942  eV     1   --> A              
     e( 35 - 35) =    -16.38383  eV     1   --> A              
     e( 36 - 36) =    -16.38250  eV     1   --> A              
     e( 37 - 37) =    -16.37787  eV     1   --> A              
     e( 38 - 38) =    -16.35372  eV     1   --> A              
     e( 39 - 39) =    -16.35206  eV     1   --> A              
     e( 40 - 40) =    -16.34782  eV     1   --> A              
     e( 41 - 41) =    -16.34615  eV     1   --> A              
     e( 42 - 42) =    -16.34414  eV     1   --> A              
     e( 43 - 43) =    -16.33581  eV     1   --> A              
     e( 44 - 44) =    -16.33055  eV     1   --> A              
     e( 45 - 45) =    -16.32977  eV     1   --> A              
     e( 46 - 46) =    -16.31578  eV     1   --> A              
     e( 47 - 47) =    -16.24065  eV     1   --> A              
     e( 48 - 48) =    -16.23432  eV     1   --> A              
     e( 49 - 49) =    -16.23154  eV     1   --> A              
     e( 50 - 50) =    -15.56207  eV     1   --> A              
     e( 51 - 51) =    -15.55758  eV     1   --> A              
     e( 52 - 52) =    -15.53519  eV     1   --> A              
     e( 53 - 53) =    -15.46049  eV     1   --> A              
     e( 54 - 54) =    -15.28894  eV     1   --> A              
     e( 55 - 55) =    -15.09656  eV     1   --> A              
     e( 56 - 56) =    -15.09153  eV     1   --> A              
     e( 57 - 57) =    -15.08506  eV     1   --> A              
     e( 58 - 58) =    -14.93417  eV     1   --> A              
     e( 59 - 59) =    -14.92870  eV     1   --> A              
     e( 60 - 60) =    -14.82859  eV     1   --> A              
     e( 61 - 61) =    -14.82284  eV     1   --> A              
     e( 62 - 62) =    -14.81073  eV     1   --> A              
     e( 63 - 63) =    -14.46813  eV     1   --> A              
     e( 64 - 64) =    -14.46390  eV     1   --> A              
     e( 65 - 65) =    -14.45841  eV     1   --> A              
     e( 66 - 66) =    -14.34248  eV     1   --> A              
     e( 67 - 67) =    -14.34071  eV     1   --> A              
     e( 68 - 68) =    -13.89678  eV     1   --> A              
     e( 69 - 69) =    -12.34239  eV     1   --> A              
     e( 70 - 70) =    -12.25408  eV     1   --> A              
     e( 71 - 71) =    -11.97585  eV     1   --> A              
     e( 72 - 72) =    -11.69181  eV     1   --> A              
     e( 73 - 73) =    -11.68214  eV     1   --> A              
     e( 74 - 74) =    -11.67218  eV     1   --> A              
     e( 75 - 75) =    -11.32317  eV     1   --> A              
     e( 76 - 76) =    -10.57030  eV     1   --> A              
     e( 77 - 77) =    -10.52124  eV     1   --> A              
     e( 78 - 78) =    -10.02492  eV     1   --> A              
     e( 79 - 79) =    -10.01045  eV     1   --> A              
     e( 80 - 80) =    -10.00467  eV     1   --> A              
     e( 81 - 81) =     -9.96466  eV     1   --> A              
     e( 82 - 82) =     -9.30830  eV     1   --> A              
     e( 83 - 83) =     -9.27837  eV     1   --> A              
     e( 84 - 84) =     -8.92790  eV     1   --> A              
     e( 85 - 85) =     -8.87866  eV     1   --> A              
     e( 86 - 86) =     -8.65289  eV     1   --> A              
     e( 87 - 87) =     -8.64550  eV     1   --> A              
     e( 88 - 88) =     -8.63416  eV     1   --> A              
     e( 89 - 89) =     -8.51494  eV     1   --> A              
     e( 90 - 90) =     -8.05780  eV     1   --> A              
     e( 91 - 91) =     -7.97682  eV     1   --> A              
     e( 92 - 92) =     -7.94239  eV     1   --> A              
     e( 93 - 93) =     -7.93309  eV     1   --> A              
     e( 94 - 94) =     -7.89350  eV     1   --> A              
     e( 95 - 95) =     -7.87772  eV     1   --> A              
     e( 96 - 96) =     -7.84370  eV     1   --> A              
     e( 97 - 97) =     -7.64580  eV     1   --> A              
     e( 98 - 98) =     -7.62949  eV     1   --> A              
     e( 99 - 99) =     -7.62299  eV     1   --> A              
     e(100 -100) =     -7.41022  eV     1   --> A              
     e(101 -101) =     -7.35654  eV     1   --> A              
     e(102 -102) =     -7.35214  eV     1   --> A              
     e(103 -103) =     -7.28043  eV     1   --> A              
     e(104 -104) =     -7.27313  eV     1   --> A              
     e(105 -105) =     -7.26561  eV     1   --> A              
     e(106 -106) =     -7.17299  eV     1   --> A              
     e(107 -107) =     -6.93098  eV     1   --> A              
     e(108 -108) =     -6.82833  eV     1   --> A              
     e(109 -109) =     -6.72322  eV     1   --> A              
     e(110 -110) =     -6.71675  eV     1   --> A              
     e(111 -111) =     -6.71155  eV     1   --> A              
     e(112 -112) =     -6.62643  eV     1   --> A              
     e(113 -113) =     -6.59768  eV     1   --> A              
     e(114 -114) =     -6.59573  eV     1   --> A              
     e(115 -115) =     -6.51675  eV     1   --> A              
     e(116 -116) =     -6.21283  eV     1   --> A              
     e(117 -117) =     -5.93557  eV     1   --> A              
     e(118 -118) =     -5.80685  eV     1   --> A              
     e(119 -119) =     -5.73248  eV     1   --> A              
     e(120 -120) =     -5.73084  eV     1   --> A              
     e(121 -121) =     -5.58801  eV     1   --> A              
     e(122 -122) =     -5.49492  eV     1   --> A              
     e(123 -123) =     -5.48943  eV     1   --> A              
     e(124 -124) =     -5.43600  eV     1   --> A              
     e(125 -125) =     -5.33082  eV     1   --> A              
     e(126 -126) =     -5.26842  eV     1   --> A              
     e(127 -127) =     -5.23191  eV     1   --> A              
     e(128 -128) =     -5.17517  eV     1   --> A              
     e(129 -129) =     -5.17382  eV     1   --> A              
     e(130 -130) =     -5.15525  eV     1   --> A              
     e(131 -131) =     -5.10583  eV     1   --> A              
     e(132 -132) =     -5.07619  eV     1   --> A              
     e(133 -133) =     -5.06393  eV     1   --> A              
     e(134 -134) =     -5.01382  eV     1   --> A              
     e(135 -135) =     -4.96383  eV     1   --> A              
     e(136 -136) =     -4.92870  eV     1   --> A              
     e(137 -137) =     -4.91547  eV     1   --> A              
     e(138 -138) =     -4.75591  eV     1   --> A              
     e(139 -139) =     -4.74332  eV     1   --> A              
     e(140 -140) =     -4.74064  eV     1   --> A              
     e(141 -141) =     -4.62609  eV     1   --> A              
     e(142 -142) =     -4.59442  eV     1   --> A              
     e(143 -143) =     -4.45569  eV     1   --> A              
     e(144 -144) =     -4.44835  eV     1   --> A              
     e(145 -145) =     -4.43934  eV     1   --> A              
     e(146 -146) =     -4.30886  eV     1   --> A              
     e(147 -147) =     -4.30358  eV     1   --> A              
     e(148 -148) =     -4.27223  eV     1   --> A              
     e(149 -149) =     -4.09218  eV     1   --> A              
     e(150 -150) =     -4.08353  eV     1   --> A              
     e(151 -151) =     -4.05559  eV     1   --> A              
     e(152 -152) =     -4.04599  eV     1   --> A              
     e(153 -153) =     -4.03879  eV     1   --> A              
     e(154 -154) =     -4.00952  eV     1   --> A              
     e(155 -155) =     -3.96401  eV     1   --> A              
     e(156 -156) =     -3.89584  eV     1   --> A              
     e(157 -157) =     -3.88986  eV     1   --> A              
     e(158 -158) =     -3.79870  eV     1   --> A              
     e(159 -159) =     -3.58762  eV     1   --> A              
     e(160 -160) =     -3.58182  eV     1   --> A              
     e(161 -161) =     -3.57726  eV     1   --> A              
     e(162 -162) =     -3.43829  eV     1   --> A              
     e(163 -163) =     -3.39326  eV     1   --> A              
     e(164 -164) =     -3.39150  eV     1   --> A              
     e(165 -165) =     -3.38531  eV     1   --> A              
     e(166 -166) =     -3.27897  eV     1   --> A              
     e(167 -167) =     -3.26631  eV     1   --> A              
     e(168 -168) =     -3.24130  eV     1   --> A              
     e(169 -169) =     -3.22807  eV     1   --> A              
     e(170 -170) =     -3.16609  eV     1   --> A              
     e(171 -171) =     -3.15502  eV     1   --> A              
     e(172 -172) =     -3.15367  eV     1   --> A              
     e(173 -173) =     -3.08789  eV     1   --> A              
     e(174 -174) =     -3.08237  eV     1   --> A              
     e(175 -175) =     -3.06898  eV     1   --> A              
     e(176 -176) =     -3.01073  eV     1   --> A              
     e(177 -177) =     -3.00556  eV     1   --> A              
     e(178 -178) =     -2.86584  eV     1   --> A              
     e(179 -179) =     -2.85979  eV     1   --> A              
     e(180 -180) =     -2.71312  eV     1   --> A              
     e(181 -181) =     -2.65299  eV     1   --> A              
     e(182 -182) =     -2.63857  eV     1   --> A              
     e(183 -183) =     -2.58490  eV     1   --> A              
     e(184 -184) =     -2.50899  eV     1   --> A              
     e(185 -185) =     -2.50191  eV     1   --> A              
     e(186 -186) =     -2.32857  eV     1   --> A              
     e(187 -187) =     -2.30514  eV     1   --> A              
     e(188 -188) =     -2.28586  eV     1   --> A              
     e(189 -189) =     -0.57260  eV     1   --> A              
     e(190 -190) =     -0.13241  eV     1   --> A              
     e(191 -191) =     -0.12259  eV     1   --> A              
     e(192 -192) =     -0.07085  eV     1   --> A              
     e(193 -193) =      0.38844  eV     1   --> A              
     e(194 -194) =      0.69246  eV     1   --> A              
     e(195 -195) =      0.70679  eV     1   --> A              
     e(196 -196) =      0.74117  eV     1   --> A              
     e(197 -197) =      0.75804  eV     1   --> A              
     e(198 -198) =      0.76053  eV     1   --> A              
     e(199 -199) =      0.79563  eV     1   --> A              
     e(200 -200) =      1.02344  eV     1   --> A              
     e(201 -201) =      1.04023  eV     1   --> A              
     e(202 -202) =      1.04877  eV     1   --> A              
     e(203 -203) =      1.19568  eV     1   --> A              
     e(204 -204) =      1.20688  eV     1   --> A              
     e(205 -205) =      1.24594  eV     1   --> A              
     e(206 -206) =      1.25885  eV     1   --> A              
     e(207 -207) =      1.28164  eV     1   --> A              
     e(208 -208) =      1.32406  eV     1   --> A              
     e(209 -209) =      1.51393  eV     1   --> A              
     e(210 -210) =      1.64004  eV     1   --> A              
     e(211 -211) =      1.66249  eV     1   --> A              
     e(212 -212) =      1.68224  eV     1   --> A              
     e(213 -213) =      1.71273  eV     1   --> A              
     e(214 -214) =      1.73687  eV     1   --> A              
     e(215 -215) =      1.81708  eV     1   --> A              
     e(216 -216) =      2.00081  eV     1   --> A              
     e(217 -217) =      2.01371  eV     1   --> A              
     e(218 -218) =      2.03896  eV     1   --> A              
     e(219 -219) =      2.04909  eV     1   --> A              
     e(220 -220) =      2.40938  eV     1   --> A              
     e(221 -221) =      2.43645  eV     1   --> A              
     e(222 -222) =      2.46456  eV     1   --> A              
     e(223 -223) =      2.55614  eV     1   --> A              
     e(224 -224) =      2.57156  eV     1   --> A              
     e(225 -225) =      2.70124  eV     1   --> A              
     e(226 -226) =      2.76344  eV     1   --> A              
     e(227 -227) =      2.81163  eV     1   --> A              
     e(228 -228) =      2.84530  eV     1   --> A              
     e(229 -229) =      2.90950  eV     1   --> A              
     e(230 -230) =      3.00998  eV     1   --> A              
     e(231 -231) =      3.08861  eV     1   --> A              
     e(232 -232) =      3.15706  eV     1   --> A              
     e(233 -233) =      3.21990  eV     1   --> A              
     e(234 -234) =      3.26153  eV     1   --> A              
     e(235 -235) =      3.26930  eV     1   --> A              
     e(236 -236) =      3.31920  eV     1   --> A              
     e(237 -237) =      3.34643  eV     1   --> A              
     e(238 -238) =      3.38285  eV     1   --> A              
     e(239 -239) =      3.41783  eV     1   --> A              
     e(240 -240) =      3.44907  eV     1   --> A              
     e(241 -241) =      3.48988  eV     1   --> A              
     e(242 -242) =      3.54119  eV     1   --> A              
     e(243 -243) =      3.59021  eV     1   --> A              
     e(244 -244) =      3.63109  eV     1   --> A              
     e(245 -245) =      3.67144  eV     1   --> A              
     e(246 -246) =      3.70622  eV     1   --> A              
     e(247 -247) =      3.78253  eV     1   --> A              
     e(248 -248) =      3.84071  eV     1   --> A              
     e(249 -249) =      3.92878  eV     1   --> A              
     e(250 -250) =      3.98114  eV     1   --> A              
     e(251 -251) =      4.02140  eV     1   --> A              
     e(252 -252) =      4.09316  eV     1   --> A              
     e(253 -253) =      4.20466  eV     1   --> A              
     e(254 -254) =      4.29085  eV     1   --> A              
     e(255 -255) =      4.30487  eV     1   --> A              
     e(256 -256) =      4.33619  eV     1   --> A              
     e(257 -257) =      4.34353  eV     1   --> A              
     e(258 -258) =      4.40083  eV     1   --> A              
     e(259 -259) =      4.42894  eV     1   --> A              
     e(260 -260) =      4.47512  eV     1   --> A              

 **************************************************************************

 **************************************************************************

                    xk=(   0.02500,   0.01443,   0.00000  )

     Band symmetry, C_1 (1)     point group:

     e(  1 -  1) =   -113.48927  eV     1   --> A              
     e(  2 -  2) =   -113.48401  eV     1   --> A              
     e(  3 -  3) =   -113.48041  eV     1   --> A              
     e(  4 -  4) =   -113.29672  eV     1   --> A              
     e(  5 -  5) =    -70.96261  eV     1   --> A              
     e(  6 -  6) =    -70.95760  eV     1   --> A              
     e(  7 -  7) =    -70.95737  eV     1   --> A              
     e(  8 -  8) =    -70.95336  eV     1   --> A              
     e(  9 -  9) =    -70.95216  eV     1   --> A              
     e( 10 - 10) =    -70.95105  eV     1   --> A              
     e( 11 - 11) =    -70.81236  eV     1   --> A              
     e( 12 - 12) =    -70.80832  eV     1   --> A              
     e( 13 - 13) =    -70.79359  eV     1   --> A              
     e( 14 - 14) =    -70.78595  eV     1   --> A              
     e( 15 - 15) =    -70.78304  eV     1   --> A              
     e( 16 - 16) =    -70.51460  eV     1   --> A              
     e( 17 - 17) =    -25.14370  eV     1   --> A              
     e( 18 - 18) =    -22.86430  eV     1   --> A              
     e( 19 - 19) =    -20.41654  eV     1   --> A              
     e( 20 - 20) =    -18.41770  eV     1   --> A              
     e( 21 - 21) =    -18.03808  eV     1   --> A              
     e( 22 - 22) =    -17.87812  eV     1   --> A              
     e( 23 - 23) =    -17.87431  eV     1   --> A              
     e( 24 - 24) =    -17.86822  eV     1   --> A              
     e( 25 - 25) =    -17.07445  eV     1   --> A              
     e( 26 - 26) =    -17.06912  eV     1   --> A              
     e( 27 - 27) =    -17.06454  eV     1   --> A              
     e( 28 - 28) =    -17.02887  eV     1   --> A              
     e( 29 - 29) =    -16.78831  eV     1   --> A              
     e( 30 - 30) =    -16.64261  eV     1   --> A              
     e( 31 - 31) =    -16.63581  eV     1   --> A              
     e( 32 - 32) =    -16.59562  eV     1   --> A              
     e( 33 - 33) =    -16.59212  eV     1   --> A              
     e( 34 - 34) =    -16.58969  eV     1   --> A              
     e( 35 - 35) =    -16.38403  eV     1   --> A              
     e( 36 - 36) =    -16.38236  eV     1   --> A              
     e( 37 - 37) =    -16.37777  eV     1   --> A              
     e( 38 - 38) =    -16.35370  eV     1   --> A              
     e( 39 - 39) =    -16.35204  eV     1   --> A              
     e( 40 - 40) =    -16.34782  eV     1   --> A              
     e( 41 - 41) =    -16.34615  eV     1   --> A              
     e( 42 - 42) =    -16.34412  eV     1   --> A              
     e( 43 - 43) =    -16.33583  eV     1   --> A              
     e( 44 - 44) =    -16.33057  eV     1   --> A              
     e( 45 - 45) =    -16.32979  eV     1   --> A              
     e( 46 - 46) =    -16.31577  eV     1   --> A              
     e( 47 - 47) =    -16.24061  eV     1   --> A              
     e( 48 - 48) =    -16.23465  eV     1   --> A              
     e( 49 - 49) =    -16.23146  eV     1   --> A              
     e( 50 - 50) =    -15.56133  eV     1   --> A              
     e( 51 - 51) =    -15.55721  eV     1   --> A              
     e( 52 - 52) =    -15.53460  eV     1   --> A              
     e( 53 - 53) =    -15.46049  eV     1   --> A              
     e( 54 - 54) =    -15.28895  eV     1   --> A              
     e( 55 - 55) =    -15.09671  eV     1   --> A              
     e( 56 - 56) =    -15.09194  eV     1   --> A              
     e( 57 - 57) =    -15.08547  eV     1   --> A              
     e( 58 - 58) =    -14.93453  eV     1   --> A              
     e( 59 - 59) =    -14.92957  eV     1   --> A              
     e( 60 - 60) =    -14.82832  eV     1   --> A              
     e( 61 - 61) =    -14.82213  eV     1   --> A              
     e( 62 - 62) =    -14.81033  eV     1   --> A              
     e( 63 - 63) =    -14.46830  eV     1   --> A              
     e( 64 - 64) =    -14.46378  eV     1   --> A              
     e( 65 - 65) =    -14.45854  eV     1   --> A              
     e( 66 - 66) =    -14.34321  eV     1   --> A              
     e( 67 - 67) =    -14.34091  eV     1   --> A              
     e( 68 - 68) =    -13.89678  eV     1   --> A              
     e( 69 - 69) =    -12.34127  eV     1   --> A              
     e( 70 - 70) =    -12.25403  eV     1   --> A              
     e( 71 - 71) =    -11.97585  eV     1   --> A              
     e( 72 - 72) =    -11.69227  eV     1   --> A              
     e( 73 - 73) =    -11.68200  eV     1   --> A              
     e( 74 - 74) =    -11.67245  eV     1   --> A              
     e( 75 - 75) =    -11.32318  eV     1   --> A              
     e( 76 - 76) =    -10.56982  eV     1   --> A              
     e( 77 - 77) =    -10.52095  eV     1   --> A              
     e( 78 - 78) =    -10.02473  eV     1   --> A              
     e( 79 - 79) =    -10.01108  eV     1   --> A              
     e( 80 - 80) =    -10.00455  eV     1   --> A              
     e( 81 - 81) =     -9.96457  eV     1   --> A              
     e( 82 - 82) =     -9.30830  eV     1   --> A              
     e( 83 - 83) =     -9.27837  eV     1   --> A              
     e( 84 - 84) =     -8.92751  eV     1   --> A              
     e( 85 - 85) =     -8.87863  eV     1   --> A              
     e( 86 - 86) =     -8.65286  eV     1   --> A              
     e( 87 - 87) =     -8.64498  eV     1   --> A              
     e( 88 - 88) =     -8.63397  eV     1   --> A              
     e( 89 - 89) =     -8.51495  eV     1   --> A              
     e( 90 - 90) =     -8.05784  eV     1   --> A              
     e( 91 - 91) =     -7.97748  eV     1   --> A              
     e( 92 - 92) =     -7.94292  eV     1   --> A              
     e( 93 - 93) =     -7.93383  eV     1   --> A              
     e( 94 - 94) =     -7.89315  eV     1   --> A              
     e( 95 - 95) =     -7.87866  eV     1   --> A              
     e( 96 - 96) =     -7.84341  eV     1   --> A              
     e( 97 - 97) =     -7.64688  eV     1   --> A              
     e( 98 - 98) =     -7.63018  eV     1   --> A              
     e( 99 - 99) =     -7.62307  eV     1   --> A              
     e(100 -100) =     -7.41081  eV     1   --> A              
     e(101 -101) =     -7.35746  eV     1   --> A              
     e(102 -102) =     -7.35314  eV     1   --> A              
     e(103 -103) =     -7.28017  eV     1   --> A              
     e(104 -104) =     -7.27455  eV     1   --> A              
     e(105 -105) =     -7.26517  eV     1   --> A              
     e(106 -106) =     -7.17302  eV     1   --> A              
     e(107 -107) =     -6.93095  eV     1   --> A              
     e(108 -108) =     -6.82833  eV     1   --> A              
     e(109 -109) =     -6.72511  eV     1   --> A              
     e(110 -110) =     -6.71769  eV     1   --> A              
     e(111 -111) =     -6.71183  eV     1   --> A              
     e(112 -112) =     -6.62431  eV     1   --> A              
     e(113 -113) =     -6.59522  eV     1   --> A              
     e(114 -114) =     -6.59340  eV     1   --> A              
     e(115 -115) =     -6.51504  eV     1   --> A              
     e(116 -116) =     -6.21279  eV     1   --> A              
     e(117 -117) =     -5.93556  eV     1   --> A              
     e(118 -118) =     -5.80625  eV     1   --> A              
     e(119 -119) =     -5.73185  eV     1   --> A              
     e(120 -120) =     -5.73011  eV     1   --> A              
     e(121 -121) =     -5.58770  eV     1   --> A              
     e(122 -122) =     -5.49480  eV     1   --> A              
     e(123 -123) =     -5.48965  eV     1   --> A              
     e(124 -124) =     -5.43543  eV     1   --> A              
     e(125 -125) =     -5.33078  eV     1   --> A              
     e(126 -126) =     -5.26843  eV     1   --> A              
     e(127 -127) =     -5.23181  eV     1   --> A              
     e(128 -128) =     -5.17540  eV     1   --> A              
     e(129 -129) =     -5.17353  eV     1   --> A              
     e(130 -130) =     -5.15513  eV     1   --> A              
     e(131 -131) =     -5.10590  eV     1   --> A              
     e(132 -132) =     -5.07588  eV     1   --> A              
     e(133 -133) =     -5.06421  eV     1   --> A              
     e(134 -134) =     -5.01367  eV     1   --> A              
     e(135 -135) =     -4.96420  eV     1   --> A              
     e(136 -136) =     -4.92891  eV     1   --> A              
     e(137 -137) =     -4.91542  eV     1   --> A              
     e(138 -138) =     -4.75603  eV     1   --> A              
     e(139 -139) =     -4.74355  eV     1   --> A              
     e(140 -140) =     -4.74044  eV     1   --> A              
     e(141 -141) =     -4.62680  eV     1   --> A              
     e(142 -142) =     -4.59501  eV     1   --> A              
     e(143 -143) =     -4.45603  eV     1   --> A              
     e(144 -144) =     -4.44887  eV     1   --> A              
     e(145 -145) =     -4.43881  eV     1   --> A              
     e(146 -146) =     -4.30950  eV     1   --> A              
     e(147 -147) =     -4.30367  eV     1   --> A              
     e(148 -148) =     -4.27319  eV     1   --> A              
     e(149 -149) =     -4.09244  eV     1   --> A              
     e(150 -150) =     -4.08553  eV     1   --> A              
     e(151 -151) =     -4.05859  eV     1   --> A              
     e(152 -152) =     -4.04004  eV     1   --> A              
     e(153 -153) =     -4.03820  eV     1   --> A              
     e(154 -154) =     -4.00835  eV     1   --> A              
     e(155 -155) =     -3.96375  eV     1   --> A              
     e(156 -156) =     -3.89544  eV     1   --> A              
     e(157 -157) =     -3.88955  eV     1   --> A              
     e(158 -158) =     -3.79749  eV     1   --> A              
     e(159 -159) =     -3.58725  eV     1   --> A              
     e(160 -160) =     -3.58158  eV     1   --> A              
     e(161 -161) =     -3.57696  eV     1   --> A              
     e(162 -162) =     -3.43789  eV     1   --> A              
     e(163 -163) =     -3.39312  eV     1   --> A              
     e(164 -164) =     -3.39131  eV     1   --> A              
     e(165 -165) =     -3.38462  eV     1   --> A              
     e(166 -166) =     -3.27883  eV     1   --> A              
     e(167 -167) =     -3.26631  eV     1   --> A              
     e(168 -168) =     -3.24145  eV     1   --> A              
     e(169 -169) =     -3.22813  eV     1   --> A              
     e(170 -170) =     -3.16610  eV     1   --> A              
     e(171 -171) =     -3.15575  eV     1   --> A              
     e(172 -172) =     -3.15227  eV     1   --> A              
     e(173 -173) =     -3.08824  eV     1   --> A              
     e(174 -174) =     -3.08193  eV     1   --> A              
     e(175 -175) =     -3.06961  eV     1   --> A              
     e(176 -176) =     -3.01155  eV     1   --> A              
     e(177 -177) =     -3.00540  eV     1   --> A              
     e(178 -178) =     -2.86813  eV     1   --> A              
     e(179 -179) =     -2.86088  eV     1   --> A              
     e(180 -180) =     -2.71344  eV     1   --> A              
     e(181 -181) =     -2.65327  eV     1   --> A              
     e(182 -182) =     -2.63889  eV     1   --> A              
     e(183 -183) =     -2.58485  eV     1   --> A              
     e(184 -184) =     -2.51033  eV     1   --> A              
     e(185 -185) =     -2.50202  eV     1   --> A              
     e(186 -186) =     -2.33092  eV     1   --> A              
     e(187 -187) =     -2.30588  eV     1   --> A              
     e(188 -188) =     -2.28652  eV     1   --> A              
     e(189 -189) =     -0.56960  eV     1   --> A              
     e(190 -190) =     -0.13173  eV     1   --> A              
     e(191 -191) =     -0.12289  eV     1   --> A              
     e(192 -192) =     -0.07100  eV     1   --> A              
     e(193 -193) =      0.39049  eV     1   --> A              
     e(194 -194) =      0.69222  eV     1   --> A              
     e(195 -195) =      0.70643  eV     1   --> A              
     e(196 -196) =      0.73801  eV     1   --> A              
     e(197 -197) =      0.75950  eV     1   --> A              
     e(198 -198) =      0.76362  eV     1   --> A              
     e(199 -199) =      0.79690  eV     1   --> A              
     e(200 -200) =      1.02357  eV     1   --> A              
     e(201 -201) =      1.04054  eV     1   --> A              
     e(202 -202) =      1.04892  eV     1   --> A              
     e(203 -203) =      1.19534  eV     1   --> A              
     e(204 -204) =      1.20682  eV     1   --> A              
     e(205 -205) =      1.24547  eV     1   --> A              
     e(206 -206) =      1.25791  eV     1   --> A              
     e(207 -207) =      1.28117  eV     1   --> A              
     e(208 -208) =      1.32411  eV     1   --> A              
     e(209 -209) =      1.51399  eV     1   --> A              
     e(210 -210) =      1.64010  eV     1   --> A              
     e(211 -211) =      1.66223  eV     1   --> A              
     e(212 -212) =      1.68120  eV     1   --> A              
     e(213 -213) =      1.71231  eV     1   --> A              
     e(214 -214) =      1.73657  eV     1   --> A              
     e(215 -215) =      1.81672  eV     1   --> A              
     e(216 -216) =      2.00084  eV     1   --> A              
     e(217 -217) =      2.01375  eV     1   --> A              
     e(218 -218) =      2.03896  eV     1   --> A              
     e(219 -219) =      2.04911  eV     1   --> A              
     e(220 -220) =      2.40871  eV     1   --> A              
     e(221 -221) =      2.43322  eV     1   --> A              
     e(222 -222) =      2.46960  eV     1   --> A              
     e(223 -223) =      2.55412  eV     1   --> A              
     e(224 -224) =      2.56889  eV     1   --> A              
     e(225 -225) =      2.70118  eV     1   --> A              
     e(226 -226) =      2.76509  eV     1   --> A              
     e(227 -227) =      2.81286  eV     1   --> A              
     e(228 -228) =      2.84629  eV     1   --> A              
     e(229 -229) =      2.90900  eV     1   --> A              
     e(230 -230) =      3.00974  eV     1   --> A              
     e(231 -231) =      3.08812  eV     1   --> A              
     e(232 -232) =      3.15655  eV     1   --> A              
     e(233 -233) =      3.21843  eV     1   --> A              
     e(234 -234) =      3.26029  eV     1   --> A              
     e(235 -235) =      3.26918  eV     1   --> A              
     e(236 -236) =      3.31664  eV     1   --> A              
     e(237 -237) =      3.34546  eV     1   --> A              
     e(238 -238) =      3.38401  eV     1   --> A              
     e(239 -239) =      3.41409  eV     1   --> A              
     e(240 -240) =      3.45193  eV     1   --> A              
     e(241 -241) =      3.49039  eV     1   --> A              
     e(242 -242) =      3.54204  eV     1   --> A              
     e(243 -243) =      3.59093  eV     1   --> A              
     e(244 -244) =      3.63261  eV     1   --> A              
     e(245 -245) =      3.67396  eV     1   --> A              
     e(246 -246) =      3.70897  eV     1   --> A              
     e(247 -247) =      3.78395  eV     1   --> A              
     e(248 -248) =      3.83624  eV     1   --> A              
     e(249 -249) =      3.93337  eV     1   --> A              
     e(250 -250) =      3.98063  eV     1   --> A              
     e(251 -251) =      4.02116  eV     1   --> A              
     e(252 -252) =      4.09564  eV     1   --> A              
     e(253 -253) =      4.20903  eV     1   --> A              
     e(254 -254) =      4.28522  eV     1   --> A              
     e(255 -255) =      4.29943  eV     1   --> A              
     e(256 -256) =      4.33509  eV     1   --> A              
     e(257 -257) =      4.34789  eV     1   --> A              
     e(258 -258) =      4.40083  eV     1   --> A              
     e(259 -259) =      4.41515  eV     1   --> A              
     e(260 -260) =      4.47813  eV     1   --> A              

 **************************************************************************

 **************************************************************************

                    xk=(   0.05000,   0.02887,   0.00000  )

     Band symmetry, C_1 (1)     point group:

     e(  1 -  1) =   -113.48927  eV     1   --> A              
     e(  2 -  2) =   -113.48401  eV     1   --> A              
     e(  3 -  3) =   -113.48041  eV     1   --> A              
     e(  4 -  4) =   -113.29672  eV     1   --> A              
     e(  5 -  5) =    -70.96261  eV     1   --> A              
     e(  6 -  6) =    -70.95760  eV     1   --> A              
     e(  7 -  7) =    -70.95737  eV     1   --> A              
     e(  8 -  8) =    -70.95336  eV     1   --> A              
     e(  9 -  9) =    -70.95216  eV     1   --> A              
     e( 10 - 10) =    -70.95105  eV     1   --> A              
     e( 11 - 11) =    -70.81236  eV     1   --> A              
     e( 12 - 12) =    -70.80832  eV     1   --> A              
     e( 13 - 13) =    -70.79359  eV     1   --> A              
     e( 14 - 14) =    -70.78595  eV     1   --> A              
     e( 15 - 15) =    -70.78304  eV     1   --> A              
     e( 16 - 16) =    -70.51460  eV     1   --> A              
     e( 17 - 17) =    -25.14370  eV     1   --> A              
     e( 18 - 18) =    -22.86430  eV     1   --> A              
     e( 19 - 19) =    -20.41654  eV     1   --> A              
     e( 20 - 20) =    -18.41770  eV     1   --> A              
     e( 21 - 21) =    -18.03739  eV     1   --> A              
     e( 22 - 22) =    -17.87862  eV     1   --> A              
     e( 23 - 23) =    -17.87437  eV     1   --> A              
     e( 24 - 24) =    -17.86854  eV     1   --> A              
     e( 25 - 25) =    -17.07426  eV     1   --> A              
     e( 26 - 26) =    -17.06900  eV     1   --> A              
     e( 27 - 27) =    -17.06440  eV     1   --> A              
     e( 28 - 28) =    -17.02924  eV     1   --> A              
     e( 29 - 29) =    -16.78831  eV     1   --> A              
     e( 30 - 30) =    -16.64214  eV     1   --> A              
     e( 31 - 31) =    -16.63479  eV     1   --> A              
     e( 32 - 32) =    -16.59648  eV     1   --> A              
     e( 33 - 33) =    -16.59257  eV     1   --> A              
     e( 34 - 34) =    -16.59046  eV     1   --> A              
     e( 35 - 35) =    -16.38465  eV     1   --> A              
     e( 36 - 36) =    -16.38193  eV     1   --> A              
     e( 37 - 37) =    -16.37745  eV     1   --> A              
     e( 38 - 38) =    -16.35366  eV     1   --> A              
     e( 39 - 39) =    -16.35201  eV     1   --> A              
     e( 40 - 40) =    -16.34781  eV     1   --> A              
     e( 41 - 41) =    -16.34615  eV     1   --> A              
     e( 42 - 42) =    -16.34410  eV     1   --> A              
     e( 43 - 43) =    -16.33588  eV     1   --> A              
     e( 44 - 44) =    -16.33065  eV     1   --> A              
     e( 45 - 45) =    -16.32981  eV     1   --> A              
     e( 46 - 46) =    -16.31573  eV     1   --> A              
     e( 47 - 47) =    -16.24055  eV     1   --> A              
     e( 48 - 48) =    -16.23560  eV     1   --> A              
     e( 49 - 49) =    -16.23121  eV     1   --> A              
     e( 50 - 50) =    -15.55916  eV     1   --> A              
     e( 51 - 51) =    -15.55608  eV     1   --> A              
     e( 52 - 52) =    -15.53278  eV     1   --> A              
     e( 53 - 53) =    -15.46049  eV     1   --> A              
     e( 54 - 54) =    -15.28898  eV     1   --> A              
     e( 55 - 55) =    -15.09738  eV     1   --> A              
     e( 56 - 56) =    -15.09303  eV     1   --> A              
     e( 57 - 57) =    -15.08659  eV     1   --> A              
     e( 58 - 58) =    -14.93578  eV     1   --> A              
     e( 59 - 59) =    -14.93200  eV     1   --> A              
     e( 60 - 60) =    -14.82751  eV     1   --> A              
     e( 61 - 61) =    -14.82011  eV     1   --> A              
     e( 62 - 62) =    -14.80904  eV     1   --> A              
     e( 63 - 63) =    -14.46880  eV     1   --> A              
     e( 64 - 64) =    -14.46346  eV     1   --> A              
     e( 65 - 65) =    -14.45886  eV     1   --> A              
     e( 66 - 66) =    -14.34539  eV     1   --> A              
     e( 67 - 67) =    -14.34150  eV     1   --> A              
     e( 68 - 68) =    -13.89678  eV     1   --> A              
     e( 69 - 69) =    -12.33792  eV     1   --> A              
     e( 70 - 70) =    -12.25385  eV     1   --> A              
     e( 71 - 71) =    -11.97585  eV     1   --> A              
     e( 72 - 72) =    -11.69379  eV     1   --> A              
     e( 73 - 73) =    -11.68158  eV     1   --> A              
     e( 74 - 74) =    -11.67308  eV     1   --> A              
     e( 75 - 75) =    -11.32321  eV     1   --> A              
     e( 76 - 76) =    -10.56844  eV     1   --> A              
     e( 77 - 77) =    -10.52003  eV     1   --> A              
     e( 78 - 78) =    -10.02425  eV     1   --> A              
     e( 79 - 79) =    -10.01310  eV     1   --> A              
     e( 80 - 80) =    -10.00395  eV     1   --> A              
     e( 81 - 81) =     -9.96433  eV     1   --> A              
     e( 82 - 82) =     -9.30831  eV     1   --> A              
     e( 83 - 83) =     -9.27837  eV     1   --> A              
     e( 84 - 84) =     -8.92635  eV     1   --> A              
     e( 85 - 85) =     -8.87856  eV     1   --> A              
     e( 86 - 86) =     -8.65291  eV     1   --> A              
     e( 87 - 87) =     -8.64340  eV     1   --> A              
     e( 88 - 88) =     -8.63328  eV     1   --> A              
     e( 89 - 89) =     -8.51497  eV     1   --> A              
     e( 90 - 90) =     -8.05794  eV     1   --> A              
     e( 91 - 91) =     -7.97954  eV     1   --> A              
     e( 92 - 92) =     -7.94447  eV     1   --> A              
     e( 93 - 93) =     -7.93597  eV     1   --> A              
     e( 94 - 94) =     -7.89213  eV     1   --> A              
     e( 95 - 95) =     -7.88146  eV     1   --> A              
     e( 96 - 96) =     -7.84253  eV     1   --> A              
     e( 97 - 97) =     -7.65007  eV     1   --> A              
     e( 98 - 98) =     -7.63220  eV     1   --> A              
     e( 99 - 99) =     -7.62330  eV     1   --> A              
     e(100 -100) =     -7.41258  eV     1   --> A              
     e(101 -101) =     -7.36028  eV     1   --> A              
     e(102 -102) =     -7.35606  eV     1   --> A              
     e(103 -103) =     -7.28082  eV     1   --> A              
     e(104 -104) =     -7.27748  eV     1   --> A              
     e(105 -105) =     -7.26361  eV     1   --> A              
     e(106 -106) =     -7.17312  eV     1   --> A              
     e(107 -107) =     -6.93086  eV     1   --> A              
     e(108 -108) =     -6.82835  eV     1   --> A              
     e(109 -109) =     -6.73034  eV     1   --> A              
     e(110 -110) =     -6.72132  eV     1   --> A              
     e(111 -111) =     -6.71161  eV     1   --> A              
     e(112 -112) =     -6.61795  eV     1   --> A              
     e(113 -113) =     -6.58930  eV     1   --> A              
     e(114 -114) =     -6.58574  eV     1   --> A              
     e(115 -115) =     -6.51005  eV     1   --> A              
     e(116 -116) =     -6.21268  eV     1   --> A              
     e(117 -117) =     -5.93552  eV     1   --> A              
     e(118 -118) =     -5.80444  eV     1   --> A              
     e(119 -119) =     -5.72996  eV     1   --> A              
     e(120 -120) =     -5.72792  eV     1   --> A              
     e(121 -121) =     -5.58678  eV     1   --> A              
     e(122 -122) =     -5.49448  eV     1   --> A              
     e(123 -123) =     -5.49027  eV     1   --> A              
     e(124 -124) =     -5.43375  eV     1   --> A              
     e(125 -125) =     -5.33067  eV     1   --> A              
     e(126 -126) =     -5.26846  eV     1   --> A              
     e(127 -127) =     -5.23155  eV     1   --> A              
     e(128 -128) =     -5.17593  eV     1   --> A              
     e(129 -129) =     -5.17285  eV     1   --> A              
     e(130 -130) =     -5.15475  eV     1   --> A              
     e(131 -131) =     -5.10610  eV     1   --> A              
     e(132 -132) =     -5.07498  eV     1   --> A              
     e(133 -133) =     -5.06503  eV     1   --> A              
     e(134 -134) =     -5.01323  eV     1   --> A              
     e(135 -135) =     -4.96526  eV     1   --> A              
     e(136 -136) =     -4.92954  eV     1   --> A              
     e(137 -137) =     -4.91530  eV     1   --> A              
     e(138 -138) =     -4.75642  eV     1   --> A              
     e(139 -139) =     -4.74422  eV     1   --> A              
     e(140 -140) =     -4.73983  eV     1   --> A              
     e(141 -141) =     -4.62893  eV     1   --> A              
     e(142 -142) =     -4.59673  eV     1   --> A              
     e(143 -143) =     -4.45713  eV     1   --> A              
     e(144 -144) =     -4.45009  eV     1   --> A              
     e(145 -145) =     -4.43752  eV     1   --> A              
     e(146 -146) =     -4.31125  eV     1   --> A              
     e(147 -147) =     -4.30405  eV     1   --> A              
     e(148 -148) =     -4.27592  eV     1   --> A              
     e(149 -149) =     -4.09536  eV     1   --> A              
     e(150 -150) =     -4.08885  eV     1   --> A              
     e(151 -151) =     -4.06028  eV     1   --> A              
     e(152 -152) =     -4.03677  eV     1   --> A              
     e(153 -153) =     -4.02991  eV     1   --> A              
     e(154 -154) =     -4.00488  eV     1   --> A              
     e(155 -155) =     -3.96293  eV     1   --> A              
     e(156 -156) =     -3.89433  eV     1   --> A              
     e(157 -157) =     -3.88849  eV     1   --> A              
     e(158 -158) =     -3.79396  eV     1   --> A              
     e(159 -159) =     -3.58623  eV     1   --> A              
     e(160 -160) =     -3.58087  eV     1   --> A              
     e(161 -161) =     -3.57606  eV     1   --> A              
     e(162 -162) =     -3.43666  eV     1   --> A              
     e(163 -163) =     -3.39279  eV     1   --> A              
     e(164 -164) =     -3.39068  eV     1   --> A              
     e(165 -165) =     -3.38255  eV     1   --> A              
     e(166 -166) =     -3.27845  eV     1   --> A              
     e(167 -167) =     -3.26640  eV     1   --> A              
     e(168 -168) =     -3.24194  eV     1   --> A              
     e(169 -169) =     -3.22826  eV     1   --> A              
     e(170 -170) =     -3.16619  eV     1   --> A              
     e(171 -171) =     -3.15641  eV     1   --> A              
     e(172 -172) =     -3.14963  eV     1   --> A              
     e(173 -173) =     -3.08925  eV     1   --> A              
     e(174 -174) =     -3.08087  eV     1   --> A              
     e(175 -175) =     -3.07133  eV     1   --> A              
     e(176 -176) =     -3.01404  eV     1   --> A              
     e(177 -177) =     -3.00473  eV     1   --> A              
     e(178 -178) =     -2.87536  eV     1   --> A              
     e(179 -179) =     -2.86360  eV     1   --> A              
     e(180 -180) =     -2.71441  eV     1   --> A              
     e(181 -181) =     -2.65426  eV     1   --> A              
     e(182 -182) =     -2.63972  eV     1   --> A              
     e(183 -183) =     -2.58479  eV     1   --> A              
     e(184 -184) =     -2.51423  eV     1   --> A              
     e(185 -185) =     -2.50234  eV     1   --> A              
     e(186 -186) =     -2.33814  eV     1   --> A              
     e(187 -187) =     -2.30833  eV     1   --> A              
     e(188 -188) =     -2.28800  eV     1   --> A              
     e(189 -189) =     -0.56070  eV     1   --> A              
     e(190 -190) =     -0.12995  eV     1   --> A              
     e(191 -191) =     -0.12364  eV     1   --> A              
     e(192 -192) =     -0.07136  eV     1   --> A              
     e(193 -193) =      0.39656  eV     1   --> A              
     e(194 -194) =      0.69042  eV     1   --> A              
     e(195 -195) =      0.70535  eV     1   --> A              
     e(196 -196) =      0.73272  eV     1   --> A              
     e(197 -197) =      0.76314  eV     1   --> A              
     e(198 -198) =      0.77039  eV     1   --> A              
     e(199 -199) =      0.80076  eV     1   --> A              
     e(200 -200) =      1.02379  eV     1   --> A              
     e(201 -201) =      1.04138  eV     1   --> A              
     e(202 -202) =      1.04959  eV     1   --> A              
     e(203 -203) =      1.19428  eV     1   --> A              
     e(204 -204) =      1.20660  eV     1   --> A              
     e(205 -205) =      1.24404  eV     1   --> A              
     e(206 -206) =      1.25524  eV     1   --> A              
     e(207 -207) =      1.27991  eV     1   --> A              
     e(208 -208) =      1.32423  eV     1   --> A              
     e(209 -209) =      1.51421  eV     1   --> A              
     e(210 -210) =      1.64024  eV     1   --> A              
     e(211 -211) =      1.66145  eV     1   --> A              
     e(212 -212) =      1.67810  eV     1   --> A              
     e(213 -213) =      1.71098  eV     1   --> A              
     e(214 -214) =      1.73576  eV     1   --> A              
     e(215 -215) =      1.81565  eV     1   --> A              
     e(216 -216) =      2.00080  eV     1   --> A              
     e(217 -217) =      2.01401  eV     1   --> A              
     e(218 -218) =      2.03898  eV     1   --> A              
     e(219 -219) =      2.04934  eV     1   --> A              
     e(220 -220) =      2.40563  eV     1   --> A              
     e(221 -221) =      2.42879  eV     1   --> A              
     e(222 -222) =      2.48039  eV     1   --> A              
     e(223 -223) =      2.54796  eV     1   --> A              
     e(224 -224) =      2.56179  eV     1   --> A              
     e(225 -225) =      2.70107  eV     1   --> A              
     e(226 -226) =      2.76915  eV     1   --> A              
     e(227 -227) =      2.81643  eV     1   --> A              
     e(228 -228) =      2.84910  eV     1   --> A              
     e(229 -229) =      2.90767  eV     1   --> A              
     e(230 -230) =      3.00900  eV     1   --> A              
     e(231 -231) =      3.08652  eV     1   --> A              
     e(232 -232) =      3.15516  eV     1   --> A              
     e(233 -233) =      3.21403  eV     1   --> A              
     e(234 -234) =      3.25648  eV     1   --> A              
     e(235 -235) =      3.26898  eV     1   --> A              
     e(236 -236) =      3.30952  eV     1   --> A              
     e(237 -237) =      3.34336  eV     1   --> A              
     e(238 -238) =      3.38651  eV     1   --> A              
     e(239 -239) =      3.40563  eV     1   --> A              
     e(240 -240) =      3.45810  eV     1   --> A              
     e(241 -241) =      3.49189  eV     1   --> A              
     e(242 -242) =      3.54455  eV     1   --> A              
     e(243 -243) =      3.59314  eV     1   --> A              
     e(244 -244) =      3.63723  eV     1   --> A              
     e(245 -245) =      3.68102  eV     1   --> A              
     e(246 -246) =      3.71679  eV     1   --> A              
     e(247 -247) =      3.78793  eV     1   --> A              
     e(248 -248) =      3.82629  eV     1   --> A              
     e(249 -249) =      3.94034  eV     1   --> A              
     e(250 -250) =      3.98193  eV     1   --> A              
     e(251 -251) =      4.02281  eV     1   --> A              
     e(252 -252) =      4.10232  eV     1   --> A              
     e(253 -253) =      4.22009  eV     1   --> A              
     e(254 -254) =      4.26425  eV     1   --> A              
     e(255 -255) =      4.29531  eV     1   --> A              
     e(256 -256) =      4.33110  eV     1   --> A              
     e(257 -257) =      4.35522  eV     1   --> A              
     e(258 -258) =      4.39756  eV     1   --> A              
     e(259 -259) =      4.40445  eV     1   --> A              
     e(260 -260) =      4.48340  eV     1   --> A              

 **************************************************************************

 **************************************************************************

                    xk=(   0.07500,   0.04330,   0.00000  )

     Band symmetry, C_1 (1)     point group:

     e(  1 -  1) =   -113.48927  eV     1   --> A              
     e(  2 -  2) =   -113.48401  eV     1   --> A              
     e(  3 -  3) =   -113.48041  eV     1   --> A              
     e(  4 -  4) =   -113.29672  eV     1   --> A              
     e(  5 -  5) =    -70.96261  eV     1   --> A              
     e(  6 -  6) =    -70.95760  eV     1   --> A              
     e(  7 -  7) =    -70.95737  eV     1   --> A              
     e(  8 -  8) =    -70.95336  eV     1   --> A              
     e(  9 -  9) =    -70.95216  eV     1   --> A              
     e( 10 - 10) =    -70.95105  eV     1   --> A              
     e( 11 - 11) =    -70.81236  eV     1   --> A              
     e( 12 - 12) =    -70.80832  eV     1   --> A              
     e( 13 - 13) =    -70.79359  eV     1   --> A              
     e( 14 - 14) =    -70.78595  eV     1   --> A              
     e( 15 - 15) =    -70.78304  eV     1   --> A              
     e( 16 - 16) =    -70.51460  eV     1   --> A              
     e( 17 - 17) =    -25.14370  eV     1   --> A              
     e( 18 - 18) =    -22.86430  eV     1   --> A              
     e( 19 - 19) =    -20.41654  eV     1   --> A              
     e( 20 - 20) =    -18.41770  eV     1   --> A              
     e( 21 - 21) =    -18.03623  eV     1   --> A              
     e( 22 - 22) =    -17.87952  eV     1   --> A              
     e( 23 - 23) =    -17.87446  eV     1   --> A              
     e( 24 - 24) =    -17.86901  eV     1   --> A              
     e( 25 - 25) =    -17.07395  eV     1   --> A              
     e( 26 - 26) =    -17.06881  eV     1   --> A              
     e( 27 - 27) =    -17.06416  eV     1   --> A              
     e( 28 - 28) =    -17.02985  eV     1   --> A              
     e( 29 - 29) =    -16.78831  eV     1   --> A              
     e( 30 - 30) =    -16.64154  eV     1   --> A              
     e( 31 - 31) =    -16.63291  eV     1   --> A              
     e( 32 - 32) =    -16.59786  eV     1   --> A              
     e( 33 - 33) =    -16.59336  eV     1   --> A              
     e( 34 - 34) =    -16.59166  eV     1   --> A              
     e( 35 - 35) =    -16.38572  eV     1   --> A              
     e( 36 - 36) =    -16.38122  eV     1   --> A              
     e( 37 - 37) =    -16.37693  eV     1   --> A              
     e( 38 - 38) =    -16.35357  eV     1   --> A              
     e( 39 - 39) =    -16.35196  eV     1   --> A              
     e( 40 - 40) =    -16.34779  eV     1   --> A              
     e( 41 - 41) =    -16.34616  eV     1   --> A              
     e( 42 - 42) =    -16.34405  eV     1   --> A              
     e( 43 - 43) =    -16.33596  eV     1   --> A              
     e( 44 - 44) =    -16.33078  eV     1   --> A              
     e( 45 - 45) =    -16.32984  eV     1   --> A              
     e( 46 - 46) =    -16.31564  eV     1   --> A              
     e( 47 - 47) =    -16.24078  eV     1   --> A              
     e( 48 - 48) =    -16.23685  eV     1   --> A              
     e( 49 - 49) =    -16.23078  eV     1   --> A              
     e( 50 - 50) =    -15.55571  eV     1   --> A              
     e( 51 - 51) =    -15.55422  eV     1   --> A              
     e( 52 - 52) =    -15.52961  eV     1   --> A              
     e( 53 - 53) =    -15.46048  eV     1   --> A              
     e( 54 - 54) =    -15.28903  eV     1   --> A              
     e( 55 - 55) =    -15.09921  eV     1   --> A              
     e( 56 - 56) =    -15.09459  eV     1   --> A              
     e( 57 - 57) =    -15.08790  eV     1   --> A              
     e( 58 - 58) =    -14.93886  eV     1   --> A              
     e( 59 - 59) =    -14.93504  eV     1   --> A              
     e( 60 - 60) =    -14.82621  eV     1   --> A              
     e( 61 - 61) =    -14.81709  eV     1   --> A              
     e( 62 - 62) =    -14.80656  eV     1   --> A              
     e( 63 - 63) =    -14.46962  eV     1   --> A              
     e( 64 - 64) =    -14.46312  eV     1   --> A              
     e( 65 - 65) =    -14.45922  eV     1   --> A              
     e( 66 - 66) =    -14.34902  eV     1   --> A              
     e( 67 - 67) =    -14.34248  eV     1   --> A              
     e( 68 - 68) =    -13.89677  eV     1   --> A              
     e( 69 - 69) =    -12.33241  eV     1   --> A              
     e( 70 - 70) =    -12.25353  eV     1   --> A              
     e( 71 - 71) =    -11.97585  eV     1   --> A              
     e( 72 - 72) =    -11.69677  eV     1   --> A              
     e( 73 - 73) =    -11.68091  eV     1   --> A              
     e( 74 - 74) =    -11.67370  eV     1   --> A              
     e( 75 - 75) =    -11.32325  eV     1   --> A              
     e( 76 - 76) =    -10.56626  eV     1   --> A              
     e( 77 - 77) =    -10.51839  eV     1   --> A              
     e( 78 - 78) =    -10.02406  eV     1   --> A              
     e( 79 - 79) =    -10.01616  eV     1   --> A              
     e( 80 - 80) =    -10.00268  eV     1   --> A              
     e( 81 - 81) =     -9.96391  eV     1   --> A              
     e( 82 - 82) =     -9.30831  eV     1   --> A              
     e( 83 - 83) =     -9.27836  eV     1   --> A              
     e( 84 - 84) =     -8.92442  eV     1   --> A              
     e( 85 - 85) =     -8.87844  eV     1   --> A              
     e( 86 - 86) =     -8.65340  eV     1   --> A              
     e( 87 - 87) =     -8.64074  eV     1   --> A              
     e( 88 - 88) =     -8.63182  eV     1   --> A              
     e( 89 - 89) =     -8.51500  eV     1   --> A              
     e( 90 - 90) =     -8.05811  eV     1   --> A              
     e( 91 - 91) =     -7.98315  eV     1   --> A              
     e( 92 - 92) =     -7.94687  eV     1   --> A              
     e( 93 - 93) =     -7.93938  eV     1   --> A              
     e( 94 - 94) =     -7.89058  eV     1   --> A              
     e( 95 - 95) =     -7.88596  eV     1   --> A              
     e( 96 - 96) =     -7.84099  eV     1   --> A              
     e( 97 - 97) =     -7.65520  eV     1   --> A              
     e( 98 - 98) =     -7.63537  eV     1   --> A              
     e( 99 - 99) =     -7.62378  eV     1   --> A              
     e(100 -100) =     -7.41559  eV     1   --> A              
     e(101 -101) =     -7.36519  eV     1   --> A              
     e(102 -102) =     -7.36058  eV     1   --> A              
     e(103 -103) =     -7.28704  eV     1   --> A              
     e(104 -104) =     -7.27763  eV     1   --> A              
     e(105 -105) =     -7.26030  eV     1   --> A              
     e(106 -106) =     -7.17328  eV     1   --> A              
     e(107 -107) =     -6.93074  eV     1   --> A              
     e(108 -108) =     -6.82841  eV     1   --> A              
     e(109 -109) =     -6.73786  eV     1   --> A              
     e(110 -110) =     -6.72745  eV     1   --> A              
     e(111 -111) =     -6.71069  eV     1   --> A              
     e(112 -112) =     -6.60750  eV     1   --> A              
     e(113 -113) =     -6.58042  eV     1   --> A              
     e(114 -114) =     -6.57392  eV     1   --> A              
     e(115 -115) =     -6.50208  eV     1   --> A              
     e(116 -116) =     -6.21249  eV     1   --> A              
     e(117 -117) =     -5.93545  eV     1   --> A              
     e(118 -118) =     -5.80147  eV     1   --> A              
     e(119 -119) =     -5.72681  eV     1   --> A              
     e(120 -120) =     -5.72427  eV     1   --> A              
     e(121 -121) =     -5.58531  eV     1   --> A              
     e(122 -122) =     -5.49419  eV     1   --> A              
     e(123 -123) =     -5.49102  eV     1   --> A              
     e(124 -124) =     -5.43100  eV     1   --> A              
     e(125 -125) =     -5.33047  eV     1   --> A              
     e(126 -126) =     -5.26850  eV     1   --> A              
     e(127 -127) =     -5.23116  eV     1   --> A              
     e(128 -128) =     -5.17667  eV     1   --> A              
     e(129 -129) =     -5.17188  eV     1   --> A              
     e(130 -130) =     -5.15407  eV     1   --> A              
     e(131 -131) =     -5.10641  eV     1   --> A              
     e(132 -132) =     -5.07366  eV     1   --> A              
     e(133 -133) =     -5.06624  eV     1   --> A              
     e(134 -134) =     -5.01256  eV     1   --> A              
     e(135 -135) =     -4.96690  eV     1   --> A              
     e(136 -136) =     -4.93065  eV     1   --> A              
     e(137 -137) =     -4.91513  eV     1   --> A              
     e(138 -138) =     -4.75718  eV     1   --> A              
     e(139 -139) =     -4.74527  eV     1   --> A              
     e(140 -140) =     -4.73882  eV     1   --> A              
     e(141 -141) =     -4.63245  eV     1   --> A              
     e(142 -142) =     -4.59941  eV     1   --> A              
     e(143 -143) =     -4.45919  eV     1   --> A              
     e(144 -144) =     -4.45159  eV     1   --> A              
     e(145 -145) =     -4.43594  eV     1   --> A              
     e(146 -146) =     -4.31377  eV     1   --> A              
     e(147 -147) =     -4.30496  eV     1   --> A              
     e(148 -148) =     -4.27990  eV     1   --> A              
     e(149 -149) =     -4.10344  eV     1   --> A              
     e(150 -150) =     -4.08904  eV     1   --> A              
     e(151 -151) =     -4.05933  eV     1   --> A              
     e(152 -152) =     -4.03368  eV     1   --> A              
     e(153 -153) =     -4.02019  eV     1   --> A              
     e(154 -154) =     -3.99919  eV     1   --> A              
     e(155 -155) =     -3.96139  eV     1   --> A              
     e(156 -156) =     -3.89267  eV     1   --> A              
     e(157 -157) =     -3.88640  eV     1   --> A              
     e(158 -158) =     -3.78842  eV     1   --> A              
     e(159 -159) =     -3.58475  eV     1   --> A              
     e(160 -160) =     -3.57965  eV     1   --> A              
     e(161 -161) =     -3.57458  eV     1   --> A              
     e(162 -162) =     -3.43456  eV     1   --> A              
     e(163 -163) =     -3.39250  eV     1   --> A              
     e(164 -164) =     -3.38942  eV     1   --> A              
     e(165 -165) =     -3.37917  eV     1   --> A              
     e(166 -166) =     -3.27786  eV     1   --> A              
     e(167 -167) =     -3.26676  eV     1   --> A              
     e(168 -168) =     -3.24274  eV     1   --> A              
     e(169 -169) =     -3.22830  eV     1   --> A              
     e(170 -170) =     -3.16647  eV     1   --> A              
     e(171 -171) =     -3.15670  eV     1   --> A              
     e(172 -172) =     -3.14622  eV     1   --> A              
     e(173 -173) =     -3.09105  eV     1   --> A              
     e(174 -174) =     -3.08012  eV     1   --> A              
     e(175 -175) =     -3.07306  eV     1   --> A              
     e(176 -176) =     -3.01780  eV     1   --> A              
     e(177 -177) =     -3.00351  eV     1   --> A              
     e(178 -178) =     -2.88734  eV     1   --> A              
     e(179 -179) =     -2.86763  eV     1   --> A              
     e(180 -180) =     -2.71606  eV     1   --> A              
     e(181 -181) =     -2.65632  eV     1   --> A              
     e(182 -182) =     -2.64078  eV     1   --> A              
     e(183 -183) =     -2.58492  eV     1   --> A              
     e(184 -184) =     -2.52032  eV     1   --> A              
     e(185 -185) =     -2.50286  eV     1   --> A              
     e(186 -186) =     -2.35046  eV     1   --> A              
     e(187 -187) =     -2.31288  eV     1   --> A              
     e(188 -188) =     -2.28932  eV     1   --> A              
     e(189 -189) =     -0.54626  eV     1   --> A              
     e(190 -190) =     -0.12858  eV     1   --> A              
     e(191 -191) =     -0.12376  eV     1   --> A              
     e(192 -192) =     -0.07164  eV     1   --> A              
     e(193 -193) =      0.40639  eV     1   --> A              
     e(194 -194) =      0.68554  eV     1   --> A              
     e(195 -195) =      0.70202  eV     1   --> A              
     e(196 -196) =      0.73009  eV     1   --> A              
     e(197 -197) =      0.76948  eV     1   --> A              
     e(198 -198) =      0.77824  eV     1   --> A              
     e(199 -199) =      0.80734  eV     1   --> A              
     e(200 -200) =      1.02364  eV     1   --> A              
     e(201 -201) =      1.04216  eV     1   --> A              
     e(202 -202) =      1.05165  eV     1   --> A              
     e(203 -203) =      1.19236  eV     1   --> A              
     e(204 -204) =      1.20605  eV     1   --> A              
     e(205 -205) =      1.24162  eV     1   --> A              
     e(206 -206) =      1.25133  eV     1   --> A              
     e(207 -207) =      1.27830  eV     1   --> A              
     e(208 -208) =      1.32440  eV     1   --> A              
     e(209 -209) =      1.51464  eV     1   --> A              
     e(210 -210) =      1.64042  eV     1   --> A              
     e(211 -211) =      1.66007  eV     1   --> A              
     e(212 -212) =      1.67308  eV     1   --> A              
     e(213 -213) =      1.70855  eV     1   --> A              
     e(214 -214) =      1.73469  eV     1   --> A              
     e(215 -215) =      1.81395  eV     1   --> A              
     e(216 -216) =      2.00042  eV     1   --> A              
     e(217 -217) =      2.01476  eV     1   --> A              
     e(218 -218) =      2.03904  eV     1   --> A              
     e(219 -219) =      2.05013  eV     1   --> A              
     e(220 -220) =      2.39902  eV     1   --> A              
     e(221 -221) =      2.42791  eV     1   --> A              
     e(222 -222) =      2.49295  eV     1   --> A              
     e(223 -223) =      2.53749  eV     1   --> A              
     e(224 -224) =      2.55249  eV     1   --> A              
     e(225 -225) =      2.70098  eV     1   --> A              
     e(226 -226) =      2.77370  eV     1   --> A              
     e(227 -227) =      2.82190  eV     1   --> A              
     e(228 -228) =      2.85319  eV     1   --> A              
     e(229 -229) =      2.90609  eV     1   --> A              
     e(230 -230) =      3.00765  eV     1   --> A              
     e(231 -231) =      3.08354  eV     1   --> A              
     e(232 -232) =      3.15325  eV     1   --> A              
     e(233 -233) =      3.20675  eV     1   --> A              
     e(234 -234) =      3.25021  eV     1   --> A              
     e(235 -235) =      3.26849  eV     1   --> A              
     e(236 -236) =      3.29989  eV     1   --> A              
     e(237 -237) =      3.34066  eV     1   --> A              
     e(238 -238) =      3.38715  eV     1   --> A              
     e(239 -239) =      3.39807  eV     1   --> A              
     e(240 -240) =      3.46473  eV     1   --> A              
     e(241 -241) =      3.49437  eV     1   --> A              
     e(242 -242) =      3.54856  eV     1   --> A              
     e(243 -243) =      3.59689  eV     1   --> A              
     e(244 -244) =      3.64506  eV     1   --> A              
     e(245 -245) =      3.69108  eV     1   --> A              
     e(246 -246) =      3.72864  eV     1   --> A              
     e(247 -247) =      3.79342  eV     1   --> A              
     e(248 -248) =      3.81667  eV     1   --> A              
     e(249 -249) =      3.93747  eV     1   --> A              
     e(250 -250) =      3.99218  eV     1   --> A              
     e(251 -251) =      4.02964  eV     1   --> A              
     e(252 -252) =      4.11200  eV     1   --> A              
     e(253 -253) =      4.22293  eV     1   --> A              
     e(254 -254) =      4.24631  eV     1   --> A              
     e(255 -255) =      4.29198  eV     1   --> A              
     e(256 -256) =      4.32639  eV     1   --> A              
     e(257 -257) =      4.36075  eV     1   --> A              
     e(258 -258) =      4.38183  eV     1   --> A              
     e(259 -259) =      4.40560  eV     1   --> A              
     e(260 -260) =      4.47866  eV     1   --> A              

 **************************************************************************

 **************************************************************************

                    xk=(   0.10000,   0.05774,   0.00000  )

     Band symmetry, C_1 (1)     point group:

     e(  1 -  1) =   -113.48927  eV     1   --> A              
     e(  2 -  2) =   -113.48401  eV     1   --> A              
     e(  3 -  3) =   -113.48041  eV     1   --> A              
     e(  4 -  4) =   -113.29672  eV     1   --> A              
     e(  5 -  5) =    -70.96261  eV     1   --> A              
     e(  6 -  6) =    -70.95760  eV     1   --> A              
     e(  7 -  7) =    -70.95737  eV     1   --> A              
     e(  8 -  8) =    -70.95336  eV     1   --> A              
     e(  9 -  9) =    -70.95216  eV     1   --> A              
     e( 10 - 10) =    -70.95105  eV     1   --> A              
     e( 11 - 11) =    -70.81236  eV     1   --> A              
     e( 12 - 12) =    -70.80832  eV     1   --> A              
     e( 13 - 13) =    -70.79359  eV     1   --> A              
     e( 14 - 14) =    -70.78595  eV     1   --> A              
     e( 15 - 15) =    -70.78304  eV     1   --> A              
     e( 16 - 16) =    -70.51460  eV     1   --> A              
     e( 17 - 17) =    -25.14370  eV     1   --> A              
     e( 18 - 18) =    -22.86430  eV     1   --> A              
     e( 19 - 19) =    -20.41654  eV     1   --> A              
     e( 20 - 20) =    -18.41770  eV     1   --> A              
     e( 21 - 21) =    -18.03462  eV     1   --> A              
     e( 22 - 22) =    -17.88090  eV     1   --> A              
     e( 23 - 23) =    -17.87459  eV     1   --> A              
     e( 24 - 24) =    -17.86953  eV     1   --> A              
     e( 25 - 25) =    -17.07353  eV     1   --> A              
     e( 26 - 26) =    -17.06854  eV     1   --> A              
     e( 27 - 27) =    -17.06384  eV     1   --> A              
     e( 28 - 28) =    -17.03068  eV     1   --> A              
     e( 29 - 29) =    -16.78831  eV     1   --> A              
     e( 30 - 30) =    -16.64094  eV     1   --> A              
     e( 31 - 31) =    -16.63003  eV     1   --> A              
     e( 32 - 32) =    -16.59976  eV     1   --> A              
     e( 33 - 33) =    -16.59460  eV     1   --> A              
     e( 34 - 34) =    -16.59314  eV     1   --> A              
     e( 35 - 35) =    -16.38726  eV     1   --> A              
     e( 36 - 36) =    -16.38028  eV     1   --> A              
     e( 37 - 37) =    -16.37622  eV     1   --> A              
     e( 38 - 38) =    -16.35345  eV     1   --> A              
     e( 39 - 39) =    -16.35189  eV     1   --> A              
     e( 40 - 40) =    -16.34775  eV     1   --> A              
     e( 41 - 41) =    -16.34615  eV     1   --> A              
     e( 42 - 42) =    -16.34398  eV     1   --> A              
     e( 43 - 43) =    -16.33609  eV     1   --> A              
     e( 44 - 44) =    -16.33097  eV     1   --> A              
     e( 45 - 45) =    -16.32988  eV     1   --> A              
     e( 46 - 46) =    -16.31551  eV     1   --> A              
     e( 47 - 47) =    -16.24213  eV     1   --> A              
     e( 48 - 48) =    -16.23752  eV     1   --> A              
     e( 49 - 49) =    -16.23020  eV     1   --> A              
     e( 50 - 50) =    -15.55167  eV     1   --> A              
     e( 51 - 51) =    -15.55122  eV     1   --> A              
     e( 52 - 52) =    -15.52491  eV     1   --> A              
     e( 53 - 53) =    -15.46048  eV     1   --> A              
     e( 54 - 54) =    -15.28910  eV     1   --> A              
     e( 55 - 55) =    -15.10260  eV     1   --> A              
     e( 56 - 56) =    -15.09701  eV     1   --> A              
     e( 57 - 57) =    -15.08852  eV     1   --> A              
     e( 58 - 58) =    -14.94476  eV     1   --> A              
     e( 59 - 59) =    -14.93762  eV     1   --> A              
     e( 60 - 60) =    -14.82447  eV     1   --> A              
     e( 61 - 61) =    -14.81365  eV     1   --> A              
     e( 62 - 62) =    -14.80239  eV     1   --> A              
     e( 63 - 63) =    -14.47074  eV     1   --> A              
     e( 64 - 64) =    -14.46320  eV     1   --> A              
     e( 65 - 65) =    -14.45916  eV     1   --> A              
     e( 66 - 66) =    -14.35404  eV     1   --> A              
     e( 67 - 67) =    -14.34383  eV     1   --> A              
     e( 68 - 68) =    -13.89677  eV     1   --> A              
     e( 69 - 69) =    -12.32486  eV     1   --> A              
     e( 70 - 70) =    -12.25300  eV     1   --> A              
     e( 71 - 71) =    -11.97585  eV     1   --> A              
     e( 72 - 72) =    -11.70158  eV     1   --> A              
     e( 73 - 73) =    -11.68000  eV     1   --> A              
     e( 74 - 74) =    -11.67393  eV     1   --> A              
     e( 75 - 75) =    -11.32331  eV     1   --> A              
     e( 76 - 76) =    -10.56346  eV     1   --> A              
     e( 77 - 77) =    -10.51585  eV     1   --> A              
     e( 78 - 78) =    -10.02658  eV     1   --> A              
     e( 79 - 79) =    -10.01788  eV     1   --> A              
     e( 80 - 80) =    -10.00078  eV     1   --> A              
     e( 81 - 81) =     -9.96331  eV     1   --> A              
     e( 82 - 82) =     -9.30832  eV     1   --> A              
     e( 83 - 83) =     -9.27836  eV     1   --> A              
     e( 84 - 84) =     -8.92173  eV     1   --> A              
     e( 85 - 85) =     -8.87826  eV     1   --> A              
     e( 86 - 86) =     -8.65468  eV     1   --> A              
     e( 87 - 87) =     -8.63699  eV     1   --> A              
     e( 88 - 88) =     -8.62928  eV     1   --> A              
     e( 89 - 89) =     -8.51504  eV     1   --> A              
     e( 90 - 90) =     -8.05838  eV     1   --> A              
     e( 91 - 91) =     -7.98848  eV     1   --> A              
     e( 92 - 92) =     -7.94996  eV     1   --> A              
     e( 93 - 93) =     -7.94384  eV     1   --> A              
     e( 94 - 94) =     -7.89273  eV     1   --> A              
     e( 95 - 95) =     -7.88795  eV     1   --> A              
     e( 96 - 96) =     -7.83865  eV     1   --> A              
     e( 97 - 97) =     -7.66207  eV     1   --> A              
     e( 98 - 98) =     -7.63939  eV     1   --> A              
     e( 99 - 99) =     -7.62458  eV     1   --> A              
     e(100 -100) =     -7.41993  eV     1   --> A              
     e(101 -101) =     -7.37241  eV     1   --> A              
     e(102 -102) =     -7.36632  eV     1   --> A              
     e(103 -103) =     -7.29639  eV     1   --> A              
     e(104 -104) =     -7.27758  eV     1   --> A              
     e(105 -105) =     -7.25470  eV     1   --> A              
     e(106 -106) =     -7.17351  eV     1   --> A              
     e(107 -107) =     -6.93059  eV     1   --> A              
     e(108 -108) =     -6.82854  eV     1   --> A              
     e(109 -109) =     -6.74650  eV     1   --> A              
     e(110 -110) =     -6.73499  eV     1   --> A              
     e(111 -111) =     -6.70992  eV     1   --> A              
     e(112 -112) =     -6.59343  eV     1   --> A              
     e(113 -113) =     -6.56870  eV     1   --> A              
     e(114 -114) =     -6.55938  eV     1   --> A              
     e(115 -115) =     -6.49155  eV     1   --> A              
     e(116 -116) =     -6.21222  eV     1   --> A              
     e(117 -117) =     -5.93535  eV     1   --> A              
     e(118 -118) =     -5.79738  eV     1   --> A              
     e(119 -119) =     -5.72239  eV     1   --> A              
     e(120 -120) =     -5.71925  eV     1   --> A              
     e(121 -121) =     -5.58338  eV     1   --> A              
     e(122 -122) =     -5.49464  eV     1   --> A              
     e(123 -123) =     -5.49115  eV     1   --> A              
     e(124 -124) =     -5.42726  eV     1   --> A              
     e(125 -125) =     -5.33016  eV     1   --> A              
     e(126 -126) =     -5.26854  eV     1   --> A              
     e(127 -127) =     -5.23070  eV     1   --> A              
     e(128 -128) =     -5.17767  eV     1   --> A              
     e(129 -129) =     -5.17057  eV     1   --> A              
     e(130 -130) =     -5.15306  eV     1   --> A              
     e(131 -131) =     -5.10680  eV     1   --> A              
     e(132 -132) =     -5.07253  eV     1   --> A              
     e(133 -133) =     -5.06723  eV     1   --> A              
     e(134 -134) =     -5.01175  eV     1   --> A              
     e(135 -135) =     -4.96897  eV     1   --> A              
     e(136 -136) =     -4.93225  eV     1   --> A              
     e(137 -137) =     -4.91496  eV     1   --> A              
     e(138 -138) =     -4.75844  eV     1   --> A              
     e(139 -139) =     -4.74654  eV     1   --> A              
     e(140 -140) =     -4.73743  eV     1   --> A              
     e(141 -141) =     -4.63728  eV     1   --> A              
     e(142 -142) =     -4.60281  eV     1   --> A              
     e(143 -143) =     -4.46228  eV     1   --> A              
     e(144 -144) =     -4.45331  eV     1   --> A              
[...]
     e(219 -219) =      2.34089  eV     1   --> A              
     e(220 -220) =      2.34936  eV     1   --> A              
     e(221 -221) =      2.37542  eV     1   --> A              
     e(222 -222) =      2.38579  eV     1   --> A              
     e(223 -223) =      2.41288  eV     1   --> A              
     e(224 -224) =      2.53959  eV     1   --> A              
     e(225 -225) =      2.59348  eV     1   --> A              
     e(226 -226) =      2.66929  eV     1   --> A              
     e(227 -227) =      2.73590  eV     1   --> A              
     e(228 -228) =      2.74744  eV     1   --> A              
     e(229 -229) =      2.78031  eV     1   --> A              
     e(230 -230) =      2.88150  eV     1   --> A              
     e(231 -231) =      3.11219  eV     1   --> A              
     e(232 -232) =      3.13842  eV     1   --> A              
     e(233 -233) =      3.20152  eV     1   --> A              
     e(234 -234) =      3.27191  eV     1   --> A              
     e(235 -235) =      3.33563  eV     1   --> A              
     e(236 -236) =      3.35023  eV     1   --> A              
     e(237 -237) =      3.38844  eV     1   --> A              
     e(238 -238) =      3.43963  eV     1   --> A              
     e(239 -239) =      3.50969  eV     1   --> A              
     e(240 -240) =      3.53139  eV     1   --> A              
     e(241 -241) =      3.54760  eV     1   --> A              
     e(242 -242) =      3.57540  eV     1   --> A              
     e(243 -243) =      3.63235  eV     1   --> A              
     e(244 -244) =      3.64854  eV     1   --> A              
     e(245 -245) =      3.68403  eV     1   --> A              
     e(246 -246) =      3.77089  eV     1   --> A              
     e(247 -247) =      3.81778  eV     1   --> A              
     e(248 -248) =      3.92248  eV     1   --> A              
     e(249 -249) =      3.94182  eV     1   --> A              
     e(250 -250) =      3.97544  eV     1   --> A              
     e(251 -251) =      4.00522  eV     1   --> A              
     e(252 -252) =      4.05187  eV     1   --> A              
     e(253 -253) =      4.11827  eV     1   --> A              
     e(254 -254) =      4.16744  eV     1   --> A              
     e(255 -255) =      4.21515  eV     1   --> A              
     e(256 -256) =      4.28613  eV     1   --> A              
     e(257 -257) =      4.37653  eV     1   --> A              
     e(258 -258) =      4.39061  eV     1   --> A              
     e(259 -259) =      4.42740  eV     1   --> A              
     e(260 -260) =      4.48905  eV     1   --> A              

 **************************************************************************

 **************************************************************************

                    xk=(   0.33330,   0.57729,   0.23084  )

     Band symmetry, C_1 (1)     point group:

     e(  1 -  1) =   -113.48927  eV     1   --> A              
     e(  2 -  2) =   -113.48401  eV     1   --> A              
     e(  3 -  3) =   -113.48041  eV     1   --> A              
     e(  4 -  4) =   -113.29672  eV     1   --> A              
     e(  5 -  5) =    -70.96261  eV     1   --> A              
     e(  6 -  6) =    -70.95760  eV     1   --> A              
     e(  7 -  7) =    -70.95737  eV     1   --> A              
     e(  8 -  8) =    -70.95336  eV     1   --> A              
     e(  9 -  9) =    -70.95216  eV     1   --> A              
     e( 10 - 10) =    -70.95105  eV     1   --> A              
     e( 11 - 11) =    -70.81236  eV     1   --> A              
     e( 12 - 12) =    -70.80832  eV     1   --> A              
     e( 13 - 13) =    -70.79359  eV     1   --> A              
     e( 14 - 14) =    -70.78595  eV     1   --> A              
     e( 15 - 15) =    -70.78304  eV     1   --> A              
     e( 16 - 16) =    -70.51460  eV     1   --> A              
     e( 17 - 17) =    -25.14371  eV     1   --> A              
     e( 18 - 18) =    -22.86431  eV     1   --> A              
     e( 19 - 19) =    -20.41654  eV     1   --> A              
     e( 20 - 20) =    -18.41771  eV     1   --> A              
     e( 21 - 21) =    -17.94518  eV     1   --> A              
     e( 22 - 22) =    -17.94023  eV     1   --> A              
     e( 23 - 23) =    -17.93161  eV     1   --> A              
     e( 24 - 24) =    -17.85311  eV     1   --> A              
     e( 25 - 25) =    -17.06297  eV     1   --> A              
     e( 26 - 26) =    -17.06032  eV     1   --> A              
     e( 27 - 27) =    -17.05646  eV     1   --> A              
     e( 28 - 28) =    -17.04904  eV     1   --> A              
     e( 29 - 29) =    -16.78813  eV     1   --> A              
     e( 30 - 30) =    -16.64756  eV     1   --> A              
     e( 31 - 31) =    -16.63170  eV     1   --> A              
     e( 32 - 32) =    -16.62733  eV     1   --> A              
     e( 33 - 33) =    -16.62451  eV     1   --> A              
     e( 34 - 34) =    -16.45719  eV     1   --> A              
     e( 35 - 35) =    -16.44925  eV     1   --> A              
     e( 36 - 36) =    -16.44523  eV     1   --> A              
     e( 37 - 37) =    -16.35270  eV     1   --> A              
     e( 38 - 38) =    -16.34918  eV     1   --> A              
     e( 39 - 39) =    -16.34847  eV     1   --> A              
     e( 40 - 40) =    -16.34664  eV     1   --> A              
     e( 41 - 41) =    -16.34538  eV     1   --> A              
     e( 42 - 42) =    -16.34125  eV     1   --> A              
     e( 43 - 43) =    -16.34013  eV     1   --> A              
     e( 44 - 44) =    -16.33631  eV     1   --> A              
     e( 45 - 45) =    -16.33048  eV     1   --> A              
     e( 46 - 46) =    -16.29714  eV     1   --> A              
     e( 47 - 47) =    -16.29465  eV     1   --> A              
     e( 48 - 48) =    -16.29146  eV     1   --> A              
     e( 49 - 49) =    -16.16538  eV     1   --> A              
     e( 50 - 50) =    -15.51436  eV     1   --> A              
     e( 51 - 51) =    -15.46061  eV     1   --> A              
     e( 52 - 52) =    -15.31656  eV     1   --> A              
     e( 53 - 53) =    -15.29880  eV     1   --> A              
     e( 54 - 54) =    -15.29674  eV     1   --> A              
     e( 55 - 55) =    -15.28520  eV     1   --> A              
     e( 56 - 56) =    -15.25211  eV     1   --> A              
     e( 57 - 57) =    -15.07940  eV     1   --> A              
     e( 58 - 58) =    -15.06383  eV     1   --> A              
     e( 59 - 59) =    -15.05327  eV     1   --> A              
     e( 60 - 60) =    -14.81082  eV     1   --> A              
     e( 61 - 61) =    -14.62909  eV     1   --> A              
     e( 62 - 62) =    -14.62730  eV     1   --> A              
     e( 63 - 63) =    -14.62061  eV     1   --> A              
     e( 64 - 64) =    -14.53558  eV     1   --> A              
     e( 65 - 65) =    -14.43049  eV     1   --> A              
     e( 66 - 66) =    -14.42334  eV     1   --> A              
     e( 67 - 67) =    -14.41806  eV     1   --> A              
     e( 68 - 68) =    -13.89659  eV     1   --> A              
     e( 69 - 69) =    -12.25923  eV     1   --> A              
     e( 70 - 70) =    -11.97896  eV     1   --> A              
     e( 71 - 71) =    -11.91142  eV     1   --> A              
     e( 72 - 72) =    -11.90187  eV     1   --> A              
     e( 73 - 73) =    -11.89364  eV     1   --> A              
     e( 74 - 74) =    -11.56826  eV     1   --> A              
     e( 75 - 75) =    -11.32334  eV     1   --> A              
     e( 76 - 76) =    -10.54310  eV     1   --> A              
     e( 77 - 77) =    -10.21749  eV     1   --> A              
     e( 78 - 78) =    -10.21183  eV     1   --> A              
     e( 79 - 79) =    -10.20241  eV     1   --> A              
     e( 80 - 80) =     -9.97993  eV     1   --> A              
     e( 81 - 81) =     -9.83939  eV     1   --> A              
     e( 82 - 82) =     -9.30823  eV     1   --> A              
     e( 83 - 83) =     -9.27863  eV     1   --> A              
     e( 84 - 84) =     -8.87869  eV     1   --> A              
     e( 85 - 85) =     -8.75313  eV     1   --> A              
     e( 86 - 86) =     -8.72306  eV     1   --> A              
     e( 87 - 87) =     -8.71784  eV     1   --> A              
     e( 88 - 88) =     -8.51764  eV     1   --> A              
     e( 89 - 89) =     -8.38125  eV     1   --> A              
     e( 90 - 90) =     -8.12259  eV     1   --> A              
     e( 91 - 91) =     -8.10319  eV     1   --> A              
     e( 92 - 92) =     -8.08487  eV     1   --> A              
     e( 93 - 93) =     -8.05194  eV     1   --> A              
     e( 94 - 94) =     -7.90970  eV     1   --> A              
     e( 95 - 95) =     -7.87585  eV     1   --> A              
     e( 96 - 96) =     -7.84519  eV     1   --> A              
     e( 97 - 97) =     -7.72726  eV     1   --> A              
     e( 98 - 98) =     -7.64059  eV     1   --> A              
     e( 99 - 99) =     -7.63527  eV     1   --> A              
     e(100 -100) =     -7.61304  eV     1   --> A              
     e(101 -101) =     -7.55306  eV     1   --> A              
     e(102 -102) =     -7.54985  eV     1   --> A              
     e(103 -103) =     -7.53296  eV     1   --> A              
     e(104 -104) =     -7.29366  eV     1   --> A              
     e(105 -105) =     -7.17815  eV     1   --> A              
     e(106 -106) =     -6.98316  eV     1   --> A              
     e(107 -107) =     -6.92825  eV     1   --> A              
     e(108 -108) =     -6.85522  eV     1   --> A              
     e(109 -109) =     -6.84446  eV     1   --> A              
     e(110 -110) =     -6.83538  eV     1   --> A              
     e(111 -111) =     -6.81446  eV     1   --> A              
     e(112 -112) =     -6.38744  eV     1   --> A              
     e(113 -113) =     -6.29076  eV     1   --> A              
     e(114 -114) =     -6.28028  eV     1   --> A              
     e(115 -115) =     -6.25268  eV     1   --> A              
     e(116 -116) =     -6.20102  eV     1   --> A              
     e(117 -117) =     -5.93454  eV     1   --> A              
     e(118 -118) =     -5.68702  eV     1   --> A              
     e(119 -119) =     -5.54790  eV     1   --> A              
     e(120 -120) =     -5.53198  eV     1   --> A              
     e(121 -121) =     -5.49834  eV     1   --> A              
     e(122 -122) =     -5.48503  eV     1   --> A              
     e(123 -123) =     -5.47598  eV     1   --> A              
     e(124 -124) =     -5.41218  eV     1   --> A              
     e(125 -125) =     -5.37323  eV     1   --> A              
     e(126 -126) =     -5.29338  eV     1   --> A              
     e(127 -127) =     -5.24674  eV     1   --> A              
     e(128 -128) =     -5.18124  eV     1   --> A              
     e(129 -129) =     -5.13533  eV     1   --> A              
     e(130 -130) =     -5.11446  eV     1   --> A              
     e(131 -131) =     -5.11348  eV     1   --> A              
     e(132 -132) =     -5.08464  eV     1   --> A              
     e(133 -133) =     -5.03737  eV     1   --> A              
     e(134 -134) =     -5.00380  eV     1   --> A              
     e(135 -135) =     -4.97939  eV     1   --> A              
     e(136 -136) =     -4.94055  eV     1   --> A              
     e(137 -137) =     -4.90653  eV     1   --> A              
     e(138 -138) =     -4.82319  eV     1   --> A              
     e(139 -139) =     -4.80419  eV     1   --> A              
     e(140 -140) =     -4.73898  eV     1   --> A              
     e(141 -141) =     -4.71360  eV     1   --> A              
     e(142 -142) =     -4.67637  eV     1   --> A              
     e(143 -143) =     -4.58690  eV     1   --> A              
     e(144 -144) =     -4.55183  eV     1   --> A              
     e(145 -145) =     -4.51954  eV     1   --> A              
     e(146 -146) =     -4.30530  eV     1   --> A              
     e(147 -147) =     -4.26149  eV     1   --> A              
     e(148 -148) =     -4.23323  eV     1   --> A              
     e(149 -149) =     -4.21747  eV     1   --> A              
     e(150 -150) =     -4.00906  eV     1   --> A              
     e(151 -151) =     -4.00123  eV     1   --> A              
     e(152 -152) =     -3.96630  eV     1   --> A              
     e(153 -153) =     -3.93783  eV     1   --> A              
     e(154 -154) =     -3.88149  eV     1   --> A              
     e(155 -155) =     -3.85825  eV     1   --> A              
     e(156 -156) =     -3.79846  eV     1   --> A              
     e(157 -157) =     -3.77775  eV     1   --> A              
     e(158 -158) =     -3.68018  eV     1   --> A              
     e(159 -159) =     -3.65182  eV     1   --> A              
     e(160 -160) =     -3.64031  eV     1   --> A              
     e(161 -161) =     -3.59796  eV     1   --> A              
     e(162 -162) =     -3.53649  eV     1   --> A              
     e(163 -163) =     -3.39231  eV     1   --> A              
     e(164 -164) =     -3.33960  eV     1   --> A              
     e(165 -165) =     -3.31466  eV     1   --> A              
     e(166 -166) =     -3.29740  eV     1   --> A              
     e(167 -167) =     -3.28196  eV     1   --> A              
     e(168 -168) =     -3.24652  eV     1   --> A              
     e(169 -169) =     -3.22215  eV     1   --> A              
     e(170 -170) =     -3.18964  eV     1   --> A              
     e(171 -171) =     -3.15684  eV     1   --> A              
     e(172 -172) =     -3.13817  eV     1   --> A              
     e(173 -173) =     -3.11765  eV     1   --> A              
     e(174 -174) =     -3.08389  eV     1   --> A              
     e(175 -175) =     -3.06130  eV     1   --> A              
     e(176 -176) =     -2.99324  eV     1   --> A              
     e(177 -177) =     -2.97611  eV     1   --> A              
     e(178 -178) =     -2.97171  eV     1   --> A              
     e(179 -179) =     -2.88586  eV     1   --> A              
     e(180 -180) =     -2.86092  eV     1   --> A              
     e(181 -181) =     -2.83843  eV     1   --> A              
     e(182 -182) =     -2.81413  eV     1   --> A              
     e(183 -183) =     -2.64991  eV     1   --> A              
     e(184 -184) =     -2.61727  eV     1   --> A              
     e(185 -185) =     -2.59572  eV     1   --> A              
     e(186 -186) =     -2.56531  eV     1   --> A              
     e(187 -187) =     -2.34637  eV     1   --> A              
     e(188 -188) =     -2.30673  eV     1   --> A              
     e(189 -189) =     -0.26233  eV     1   --> A              
     e(190 -190) =     -0.10040  eV     1   --> A              
     e(191 -191) =     -0.09229  eV     1   --> A              
     e(192 -192) =     -0.05893  eV     1   --> A              
     e(193 -193) =      0.33642  eV     1   --> A              
     e(194 -194) =      0.62145  eV     1   --> A              
     e(195 -195) =      0.63859  eV     1   --> A              
     e(196 -196) =      0.66348  eV     1   --> A              
     e(197 -197) =      0.67744  eV     1   --> A              
     e(198 -198) =      0.98638  eV     1   --> A              
     e(199 -199) =      1.08639  eV     1   --> A              
     e(200 -200) =      1.10486  eV     1   --> A              
     e(201 -201) =      1.11715  eV     1   --> A              
     e(202 -202) =      1.16153  eV     1   --> A              
     e(203 -203) =      1.18990  eV     1   --> A              
     e(204 -204) =      1.20120  eV     1   --> A              
     e(205 -205) =      1.21374  eV     1   --> A              
     e(206 -206) =      1.26103  eV     1   --> A              
     e(207 -207) =      1.34339  eV     1   --> A              
     e(208 -208) =      1.39331  eV     1   --> A              
     e(209 -209) =      1.40651  eV     1   --> A              
     e(210 -210) =      1.42805  eV     1   --> A              
     e(211 -211) =      1.64352  eV     1   --> A              
     e(212 -212) =      1.67520  eV     1   --> A              
     e(213 -213) =      1.69044  eV     1   --> A              
     e(214 -214) =      1.70981  eV     1   --> A              
     e(215 -215) =      1.72133  eV     1   --> A              
     e(216 -216) =      1.88437  eV     1   --> A              
     e(217 -217) =      2.15387  eV     1   --> A              
     e(218 -218) =      2.30809  eV     1   --> A              
     e(219 -219) =      2.34089  eV     1   --> A              
     e(220 -220) =      2.34935  eV     1   --> A              
     e(221 -221) =      2.37542  eV     1   --> A              
     e(222 -222) =      2.38579  eV     1   --> A              
     e(223 -223) =      2.41288  eV     1   --> A              
     e(224 -224) =      2.53957  eV     1   --> A              
     e(225 -225) =      2.59350  eV     1   --> A              
     e(226 -226) =      2.66928  eV     1   --> A              
     e(227 -227) =      2.73589  eV     1   --> A              
     e(228 -228) =      2.74748  eV     1   --> A              
     e(229 -229) =      2.78035  eV     1   --> A              
     e(230 -230) =      2.88149  eV     1   --> A              
     e(231 -231) =      3.11219  eV     1   --> A              
     e(232 -232) =      3.13834  eV     1   --> A              
     e(233 -233) =      3.20132  eV     1   --> A              
     e(234 -234) =      3.27170  eV     1   --> A              
     e(235 -235) =      3.33555  eV     1   --> A              
     e(236 -236) =      3.35038  eV     1   --> A              
     e(237 -237) =      3.38875  eV     1   --> A              
     e(238 -238) =      3.43947  eV     1   --> A              
     e(239 -239) =      3.50896  eV     1   --> A              
     e(240 -240) =      3.53123  eV     1   --> A              
     e(241 -241) =      3.54665  eV     1   --> A              
     e(242 -242) =      3.57767  eV     1   --> A              
     e(243 -243) =      3.63378  eV     1   --> A              
     e(244 -244) =      3.64829  eV     1   --> A              
     e(245 -245) =      3.68336  eV     1   --> A              
     e(246 -246) =      3.77051  eV     1   --> A              
     e(247 -247) =      3.82041  eV     1   --> A              
     e(248 -248) =      3.92315  eV     1   --> A              
     e(249 -249) =      3.94057  eV     1   --> A              
     e(250 -250) =      3.97636  eV     1   --> A              
     e(251 -251) =      4.00224  eV     1   --> A              
     e(252 -252) =      4.04943  eV     1   --> A              
     e(253 -253) =      4.11503  eV     1   --> A              
     e(254 -254) =      4.16720  eV     1   --> A              
     e(255 -255) =      4.21612  eV     1   --> A              
     e(256 -256) =      4.28845  eV     1   --> A              
     e(257 -257) =      4.37814  eV     1   --> A              
     e(258 -258) =      4.39383  eV     1   --> A              
     e(259 -259) =      4.42908  eV     1   --> A              
     e(260 -260) =      4.49487  eV     1   --> A              

 **************************************************************************
 
     BANDS        :    181.20s CPU    514.08s WALL

 
   This run was terminated on:   0:27:15  14Feb2026            

=------------------------------------------------------------------------------=
   JOB DONE.
=------------------------------------------------------------------------------=
