
     Program PWSCF v.7.3.1 starts on 12Feb2026 at 13:38:49 

     This program is part of the open-source Quantum ESPRESSO suite
     for quantum simulation of materials; please cite
         "P. Giannozzi et al., J. Phys.:Condens. Matter 21 395502 (2009);
         "P. Giannozzi et al., J. Phys.:Condens. Matter 29 465901 (2017);
         "P. Giannozzi et al., J. Chem. Phys. 152 154105 (2020);
          URL http://www.quantum-espresso.org", 
     in publications or presentations arising from this work. More details at
     http://www.quantum-espresso.org/quote

     Parallel version (MPI & OpenMP), running on      64 processor cores
     Number of MPI processes:                64
     Threads/MPI process:                     1

     MPI processes distributed on     1 nodes
     485045 MiB available memory on the printing compute node when the environment starts
 
     Waiting for input...
     Reading input from standard input
Warning: card &IONS ignored
Warning: card / ignored
Warning: card &CELL ignored
Warning: card   PRESS = 0.0, ignored
Warning: card / ignored

     Current dimensions of program PWSCF are:
     Max number of different atomic species (ntypx) = 10
     Max number of k-points (npk) =  40000
     Max angular momentum in pseudopotentials (lmaxx) =  4

     IMPORTANT: XC functional enforced from input :
     Exchange-correlation= PBE
                           (   1   4   3   4   0   0   0)
     Any further DFT definition will be discarded
     Please, verify this is what you really want


     Atomic positions and unit cell read from directory:
     ./test.save/
 
 
     R & G space division:  proc/nbgrp/npool/nimage =      64
     Subspace diagonalization in iterative solution of the eigenvalue problem:
     one sub-group per band group will be used
     ELPA distributed-memory algorithm (size of sub-group:  3*  3 procs)

 
     Parallelization info
     --------------------
     sticks:   dense  smooth     PW     G-vecs:    dense   smooth      PW
     Min         180      90     24                33956    12002    1680
     Max         181      91     25                33969    12012    1689
     Sum       11557    5773   1555              2173495   768463  107785
 
     Using Slab Decomposition
 


     bravais-lattice index     =            4
     lattice parameter (alat)  =      22.8869  a.u.
     unit-cell volume          =   22488.0312 (a.u.)^3
     number of atoms/cell      =           63
     number of atomic types    =            8
     number of electrons       =       376.00
     number of Kohn-Sham states=          260
     kinetic-energy cutoff     =      40.0000  Ry
     charge density cutoff     =     320.0000  Ry
     Exchange-correlation= PBE
                           (   1   4   3   4   0   0   0)

     celldm(1)=  22.886890  celldm(2)=   0.000000  celldm(3)=   2.166010
     celldm(4)=   0.000000  celldm(5)=   0.000000  celldm(6)=   0.000000

     crystal axes: (cart. coord. in units of alat)
               a(1) = (   1.000000   0.000000   0.000000 )  
               a(2) = (  -0.500000   0.866025   0.000000 )  
               a(3) = (   0.000000   0.000000   2.166010 )  

     reciprocal axes: (cart. coord. in units 2 pi/alat)
               b(1) = (  1.000000  0.577350  0.000000 )  
               b(2) = (  0.000000  1.154701  0.000000 )  
               b(3) = (  0.000000  0.000000  0.461678 )  


     PseudoPot. # 1 for Cu read from file:
     ./cu_pbe_v1.2.uspp.F.UPF
     MD5 check sum: 6e991ff952a84172a2a52a1c1e996048
     Pseudo is Ultrasoft + core correction, Zval = 19.0
     Generated by new atomic code, or converted to UPF format
     Using radial grid of  867 points,  6 beta functions with: 
                l(1) =   0
                l(2) =   0
                l(3) =   1
                l(4) =   1
                l(5) =   2
                l(6) =   2
     Q(r) pseudized with  8 coefficients,  rinner =    1.150   1.150   1.150
                                                       1.150   1.150

     PseudoPot. # 2 for In read from file:
     ./in_pbe_v1.4.uspp.F.UPF
     MD5 check sum: 90777abd96fbb83f2e67db2a40c566b9
     Pseudo is Ultrasoft + core correction, Zval = 13.0
     Generated by new atomic code, or converted to UPF format
     Using radial grid of  889 points,  6 beta functions with: 
                l(1) =   0
                l(2) =   0
                l(3) =   1
                l(4) =   1
                l(5) =   2
                l(6) =   2
     Q(r) pseudized with  6 coefficients,  rinner =    1.400   1.400   1.400
                                                       1.400   1.400

     PseudoPot. # 3 for P  read from file:
     ./p_pbe_v1.5.uspp.F.UPF
     MD5 check sum: eb82b2c351da08c5f5f8709277dc7ee5
     Pseudo is Ultrasoft + core correction, Zval =  5.0
     Generated by new atomic code, or converted to UPF format
     Using radial grid of  903 points,  6 beta functions with: 
                l(1) =   0
                l(2) =   0
                l(3) =   1
                l(4) =   1
                l(5) =   2
                l(6) =   2
     Q(r) pseudized with  8 coefficients,  rinner =    1.300   1.300   1.300
                                                       1.300   1.300

     PseudoPot. # 4 for S  read from file:
     ./s_pbe_v1.4.uspp.F.UPF
     MD5 check sum: 88d86576ff6df21479756cfb9bdac1df
     Pseudo is Ultrasoft + core correction, Zval =  6.0
     Generated by new atomic code, or converted to UPF format
     Using radial grid of  907 points,  6 beta functions with: 
                l(1) =   0
                l(2) =   0
                l(3) =   1
                l(4) =   1
                l(5) =   2
                l(6) =   2
     Q(r) pseudized with  8 coefficients,  rinner =    1.300   1.300   1.300
                                                       1.300   1.300

     PseudoPot. # 5 for C  read from file:
     ./c_pbe_v1.2.uspp.F.UPF
     MD5 check sum: d1aef80898a10debaa0f26306b886e00
     Pseudo is Ultrasoft + core correction, Zval =  4.0
     Generated by new atomic code, or converted to UPF format
     Using radial grid of  721 points,  4 beta functions with: 
                l(1) =   0
                l(2) =   0
                l(3) =   1
                l(4) =   1
     Q(r) pseudized with  8 coefficients,  rinner =    1.100   1.100   1.100


     PseudoPot. # 6 for O  read from file:
     ./o_pbe_v1.2.uspp.F.UPF
     MD5 check sum: 734c27235a0248c51dbae37a1fbe46ec
     Pseudo is Ultrasoft + core correction, Zval =  6.0
     Generated by new atomic code, or converted to UPF format
     Using radial grid of  737 points,  5 beta functions with: 
                l(1) =   0
                l(2) =   0
                l(3) =   1
                l(4) =   1
                l(5) =   2
     Q(r) pseudized with  8 coefficients,  rinner =    0.900   0.900   0.900
                                                       0.900   0.900

     PseudoPot. # 7 for N  read from file:
     ./n_pbe_v1.2.uspp.F.UPF
     MD5 check sum: 95339753478d7afb44899504a8723017
     Pseudo is Ultrasoft + core correction, Zval =  5.0
     Generated by new atomic code, or converted to UPF format
     Using radial grid of  729 points,  4 beta functions with: 
                l(1) =   0
                l(2) =   0
                l(3) =   1
                l(4) =   1
     Q(r) pseudized with  8 coefficients,  rinner =    0.900   0.900   0.900


     PseudoPot. # 8 for H  read from file:
     ./h_pbe_v1.4.uspp.F.UPF
     MD5 check sum: 761ae9a214b05c3daf00ab9f6b793d6f
     Pseudo is Ultrasoft, Zval =  1.0
     Generated by new atomic code, or converted to UPF format
     Using radial grid of  615 points,  2 beta functions with: 
                l(1) =   0
                l(2) =   0
     Q(r) pseudized with  8 coefficients,  rinner =    0.700

     atomic species   valence    mass     pseudopotential
     Cu               19.00    63.54600     Cu( 1.00)
     In               13.00   114.81800     In( 1.00)
     P                 5.00    30.97400     P ( 1.00)
     S                 6.00    32.06500     S ( 1.00)
     C                 4.00    12.01100     C ( 1.00)
     O                 6.00    15.99900     O ( 1.00)
     N                 5.00    14.00670     N ( 1.00)
     H                 1.00     1.00780     H ( 1.00)

     No symmetry found



   Cartesian axes

     site n.     atom                  positions (alat units)
         1        Cu     tau(   1) = (   0.2465203   0.1348021   1.1613954  )
         2        Cu     tau(   2) = (  -0.0050406   0.5688292   1.2290482  )
         3        Cu     tau(   3) = (   0.7454670   0.1353491   1.1646353  )
         4        Cu     tau(   4) = (   0.4944083   0.5683484   1.1647310  )
         5        In     tau(   5) = (   0.9945984  -0.0106665   1.0349137  )
         6        In     tau(   6) = (   0.7465816   0.4231300   1.0325933  )
         7        In     tau(   7) = (   0.4952599  -0.0126034   1.0354003  )
         8        In     tau(   8) = (   0.2443724   0.4220200   1.0333020  )
         9        P      tau(   9) = (  -0.0049543   0.2771244   0.9565079  )
        10        P      tau(  10) = (  -0.2554546   0.7112400   0.9578135  )
        11        P      tau(  11) = (   0.4950318   0.2773880   0.9588546  )
        12        P      tau(  12) = (   0.2447902   0.7105930   0.9605590  )
        13        P      tau(  13) = (  -0.0036894   0.2779347   1.1425458  )
        14        P      tau(  14) = (  -0.2553525   0.7103436   1.1438155  )
        15        P      tau(  15) = (   0.4956555   0.2788957   1.1445441  )
        16        P      tau(  16) = (   0.2446707   0.7121447   1.1467732  )
        17        S      tau(  17) = (  -0.0938708   0.1418155   0.9137954  )
        18        S      tau(  18) = (  -0.3442496   0.5761736   0.9139380  )
        19        S      tau(  19) = (   0.4062337   0.1419459   0.9163673  )
        20        S      tau(  20) = (   0.1557391   0.5763468   0.9159693  )
        21        S      tau(  21) = (   0.4061979   0.7003501   0.9171364  )
        22        S      tau(  22) = (   0.6563570   0.2682485   0.9149960  )
        23        S      tau(  23) = (  -0.0942655   0.7016847   0.9143654  )
        24        S      tau(  24) = (   0.1564823   0.2678526   0.9129144  )
        25        S      tau(  25) = (  -0.3284958   0.8554376   0.9144580  )
        26        S      tau(  26) = (  -0.0775772   0.4209015   0.9116341  )
        27        S      tau(  27) = (   0.1729159   0.8553040   0.9165507  )
        28        S      tau(  28) = (   0.4220751   0.4214847   0.9143765  )
        29        S      tau(  29) = (   0.3377539   0.8460188   1.1962465  )
        30        S      tau(  30) = (   0.5874586   0.4130655   1.1946547  )
        31        S      tau(  31) = (  -0.1635980   0.8444160   1.1956748  )
        32        S      tau(  32) = (   0.0885726   0.4108483   1.1925764  )
        33        S      tau(  33) = (   0.0659671   0.1314609   1.1942328  )
        34        S      tau(  34) = (  -0.1865201   0.5636938   1.1941679  )
        35        S      tau(  35) = (   0.5650830   0.1325237   1.1965592  )
        36        S      tau(  36) = (   0.3141135   0.5654801   1.1980911  )
        37        S      tau(  37) = (  -0.4165432   0.7248699   1.1965219  )
        38        S      tau(  38) = (  -0.1649172   0.2918269   1.1955375  )
        39        S      tau(  39) = (   0.0842377   0.7278555   1.1999438  )
        40        S      tau(  40) = (   0.3338635   0.2918425   1.1959725  )
        41        C      tau(  41) = (  -0.0052361   0.5824657   1.6057846  )
        42        C      tau(  42) = (  -0.0233739   0.6271922   1.4892646  )
        43        C      tau(  43) = (  -0.1472034   0.6516155   1.4715996  )
        44        C      tau(  44) = (  -0.1985744   0.7263088   1.5566165  )
        45        C      tau(  45) = (  -0.1872462   0.8411813   1.5485836  )
        46        C      tau(  46) = (  -0.2585051   0.6821714   1.6451981  )
        47        C      tau(  47) = (   0.2652338   0.0444109   1.6274288  )
        48        C      tau(  48) = (  -0.3062134   0.7512720   1.7241964  )
        49        C      tau(  49) = (  -0.2944330   0.8656533   1.7154728  )
        50        O      tau(  50) = (   0.0325256   0.6606693   1.6760316  )
        51        O      tau(  51) = (  -0.0237383   0.4872998   1.6322791  )
        52        N      tau(  52) = (   0.0127655   0.5448122   1.4068479  )
        53        H      tau(  53) = (  -0.1910677   0.5716481   1.4699312  )
        54        H      tau(  54) = (  -0.0248901   0.4708144   1.4262439  )
        55        H      tau(  55) = (  -0.2682732   0.5924437   1.6516837  )
        56        H      tau(  56) = (  -0.3533236   0.7155746   1.7925706  )
        57        H      tau(  57) = (   0.0250558   0.7033767   1.4777022  )
        58        H      tau(  58) = (  -0.1546170   0.6883946   1.3886498  )
        59        H      tau(  59) = (   0.3584707   0.0105238   1.4789609  )
        60        H      tau(  60) = (   0.2742419   0.1339910   1.6197812  )
        61        H      tau(  61) = (   0.0960817   0.5302693   1.4159349  )
        62        H      tau(  62) = (   0.0372862   0.6255331   1.7495999  )
        63        H      tau(  63) = (  -0.3323073   0.9200167   1.7768844  )

     -------------------------------------------------
     Parameters for Dispersion (Grimme-D2) Correction:
     -------------------------------------------------
       atom      VdW radius       C_6     

        Cu         2.952        374.666
        In         3.160       1294.678
        P          3.222        271.980
        S          3.180        193.230
        C          2.744         60.710
        O          2.536         24.284
        N          2.640         42.670
        H          1.892          4.857

     number of k points=    96  Gaussian smearing, width (Ry)=  0.0100
                       cart. coord. in units 2pi/alat
        k(    1) = (   0.0625000   0.1082532  -0.2308392), wk =   0.0208333
        k(    2) = (   0.0625000   0.2525907  -0.2308392), wk =   0.0208333
        k(    3) = (   0.0625000   0.3969283  -0.2308392), wk =   0.0208333
        k(    4) = (   0.0625000   0.5412659  -0.2308392), wk =   0.0208333
        k(    5) = (   0.0625000  -0.4690971  -0.2308392), wk =   0.0208333
        k(    6) = (   0.0625000  -0.3247595  -0.2308392), wk =   0.0208333
        k(    7) = (   0.0625000  -0.1804220  -0.2308392), wk =   0.0208333
        k(    8) = (   0.0625000  -0.0360844  -0.2308392), wk =   0.0208333
        k(    9) = (   0.1875000   0.3247595  -0.2308392), wk =   0.0208333
        k(   10) = (   0.1875000   0.4690971  -0.2308392), wk =   0.0208333
        k(   11) = (   0.1875000   0.6134347  -0.2308392), wk =   0.0208333
        k(   12) = (   0.1875000  -0.3969283  -0.2308392), wk =   0.0208333
        k(   13) = (   0.1875000  -0.2525907  -0.2308392), wk =   0.0208333
        k(   14) = (   0.1875000  -0.1082532  -0.2308392), wk =   0.0208333
        k(   15) = (   0.3125000   0.5412659  -0.2308392), wk =   0.0208333
        k(   16) = (   0.3125000   0.6856034  -0.2308392), wk =   0.0208333
        k(   17) = (   0.3125000  -0.3247595  -0.2308392), wk =   0.0208333
        k(   18) = (   0.3125000  -0.1804220  -0.2308392), wk =   0.0208333
        k(   19) = (   0.4375000   0.7577722  -0.2308392), wk =   0.0208333
        k(   20) = (   0.4375000  -0.2525907  -0.2308392), wk =   0.0208333
        k(   21) = (  -0.0625000   0.1082532   0.2308392), wk =   0.0208333
        k(   22) = (   0.1250000   0.0000000  -0.2308392), wk =   0.0208333
        k(   23) = (  -0.0625000   0.2525907   0.2308392), wk =   0.0208333
        k(   24) = (  -0.1875000   0.1804220  -0.2308392), wk =   0.0208333
        k(   25) = (   0.2500000   0.0721688  -0.2308392), wk =   0.0208333
        k(   26) = (  -0.1875000  -0.1804220   0.2308392), wk =   0.0208333
        k(   27) = (   0.2500000  -0.0721688   0.2308392), wk =   0.0208333
        k(   28) = (  -0.0625000   0.3969283   0.2308392), wk =   0.0208333
        k(   29) = (  -0.3125000   0.2525907  -0.2308392), wk =   0.0208333
        k(   30) = (   0.3750000   0.1443376  -0.2308392), wk =   0.0208333
        k(   31) = (  -0.3125000  -0.2525907   0.2308392), wk =   0.0208333
        k(   32) = (   0.3750000  -0.1443376   0.2308392), wk =   0.0208333
        k(   33) = (  -0.0625000   0.5412659   0.2308392), wk =   0.0208333
        k(   34) = (  -0.4375000   0.3247595  -0.2308392), wk =   0.0208333
        k(   35) = (   0.5000000   0.2165064  -0.2308392), wk =   0.0208333
        k(   36) = (  -0.4375000  -0.3247595   0.2308392), wk =   0.0208333
        k(   37) = (   0.5000000  -0.2165064   0.2308392), wk =   0.0208333
        k(   38) = (  -0.0625000  -0.4690971   0.2308392), wk =   0.0208333
        k(   39) = (   0.4375000  -0.1804220  -0.2308392), wk =   0.0208333
        k(   40) = (  -0.3750000  -0.2886751  -0.2308392), wk =   0.0208333
        k(   41) = (   0.4375000   0.1804220   0.2308392), wk =   0.0208333
        k(   42) = (  -0.3750000   0.2886751   0.2308392), wk =   0.0208333
        k(   43) = (  -0.0625000  -0.3247595   0.2308392), wk =   0.0208333
        k(   44) = (   0.3125000  -0.1082532  -0.2308392), wk =   0.0208333
        k(   45) = (  -0.2500000  -0.2165064  -0.2308392), wk =   0.0208333
        k(   46) = (   0.3125000   0.1082532   0.2308392), wk =   0.0208333
        k(   47) = (  -0.2500000   0.2165064   0.2308392), wk =   0.0208333
        k(   48) = (  -0.0625000  -0.1804220   0.2308392), wk =   0.0208333
        k(   49) = (   0.1875000  -0.0360844  -0.2308392), wk =   0.0208333
        k(   50) = (  -0.1250000  -0.1443376  -0.2308392), wk =   0.0208333
        k(   51) = (   0.1875000   0.0360844   0.2308392), wk =   0.0208333
        k(   52) = (  -0.1250000   0.1443376   0.2308392), wk =   0.0208333
        k(   53) = (  -0.0625000  -0.0360844   0.2308392), wk =   0.0208333
        k(   54) = (   0.0000000  -0.0721688  -0.2308392), wk =   0.0208333
        k(   55) = (  -0.1875000   0.3247595   0.2308392), wk =   0.0208333
        k(   56) = (   0.3750000   0.0000000  -0.2308392), wk =   0.0208333
        k(   57) = (  -0.1875000   0.4690971   0.2308392), wk =   0.0208333
        k(   58) = (  -0.3125000   0.3969283  -0.2308392), wk =   0.0208333
        k(   59) = (   0.5000000   0.0721688  -0.2308392), wk =   0.0208333
        k(   60) = (  -0.3125000  -0.3969283   0.2308392), wk =   0.0208333
        k(   61) = (   0.5000000  -0.0721688   0.2308392), wk =   0.0208333
        k(   62) = (  -0.1875000   0.6134347   0.2308392), wk =   0.0208333
        k(   63) = (  -0.4375000   0.4690971  -0.2308392), wk =   0.0208333
        k(   64) = (   0.6250000   0.1443376  -0.2308392), wk =   0.0208333
        k(   65) = (  -0.4375000  -0.4690971   0.2308392), wk =   0.0208333
        k(   66) = (   0.6250000  -0.1443376   0.2308392), wk =   0.0208333
        k(   67) = (  -0.1875000  -0.3969283   0.2308392), wk =   0.0208333
        k(   68) = (   0.4375000  -0.0360844  -0.2308392), wk =   0.0208333
        k(   69) = (  -0.2500000  -0.3608439  -0.2308392), wk =   0.0208333
        k(   70) = (   0.4375000   0.0360844   0.2308392), wk =   0.0208333
        k(   71) = (  -0.2500000   0.3608439   0.2308392), wk =   0.0208333
        k(   72) = (  -0.1875000  -0.2525907   0.2308392), wk =   0.0208333
        k(   73) = (   0.3125000   0.0360844  -0.2308392), wk =   0.0208333
        k(   74) = (  -0.1250000  -0.2886751  -0.2308392), wk =   0.0208333
        k(   75) = (   0.3125000  -0.0360844   0.2308392), wk =   0.0208333
        k(   76) = (  -0.1250000   0.2886751   0.2308392), wk =   0.0208333
        k(   77) = (  -0.1875000  -0.1082532   0.2308392), wk =   0.0208333
        k(   78) = (   0.0000000  -0.2165064  -0.2308392), wk =   0.0208333
        k(   79) = (  -0.3125000   0.5412659   0.2308392), wk =   0.0208333
        k(   80) = (   0.6250000   0.0000000  -0.2308392), wk =   0.0208333
        k(   81) = (  -0.3125000   0.6856034   0.2308392), wk =   0.0208333
        k(   82) = (  -0.4375000   0.6134347  -0.2308392), wk =   0.0208333
        k(   83) = (   0.7500000   0.0721688  -0.2308392), wk =   0.0208333
        k(   84) = (  -0.4375000  -0.6134347   0.2308392), wk =   0.0208333
        k(   85) = (   0.7500000  -0.0721688   0.2308392), wk =   0.0208333
        k(   86) = (  -0.3125000  -0.3247595   0.2308392), wk =   0.0208333
        k(   87) = (   0.4375000   0.1082532  -0.2308392), wk =   0.0208333
        k(   88) = (  -0.1250000  -0.4330127  -0.2308392), wk =   0.0208333
        k(   89) = (   0.4375000  -0.1082532   0.2308392), wk =   0.0208333
        k(   90) = (  -0.1250000   0.4330127   0.2308392), wk =   0.0208333
        k(   91) = (  -0.3125000  -0.1804220   0.2308392), wk =   0.0208333
        k(   92) = (   0.0000000  -0.3608439  -0.2308392), wk =   0.0208333
        k(   93) = (  -0.4375000   0.7577722   0.2308392), wk =   0.0208333
        k(   94) = (   0.8750000   0.0000000  -0.2308392), wk =   0.0208333
        k(   95) = (  -0.4375000  -0.2525907   0.2308392), wk =   0.0208333
        k(   96) = (   0.0000000  -0.5051815  -0.2308392), wk =   0.0208333

     Dense  grid:  2173495 G-vectors     FFT dimensions: ( 135, 135, 288)

     Smooth grid:   768463 G-vectors     FFT dimensions: (  96,  96, 200)

     Estimated max dynamical RAM per process >     163.66 MB

     Estimated total dynamical RAM >      10.23 GB

     The potential is recalculated from file :
     ./test.save/charge-density


     negative rho (up, down):  3.553E-03 0.000E+00
     Starting wfcs are  275 randomized atomic wfcs

     Band Structure Calculation
     CG style diagonalization
     c_bands: 11 eigenvalues not converged
     c_bands: 12 eigenvalues not converged
     c_bands: 12 eigenvalues not converged
     c_bands: 13 eigenvalues not converged
     c_bands: 11 eigenvalues not converged
     c_bands: 10 eigenvalues not converged
     c_bands: 10 eigenvalues not converged
     c_bands: 11 eigenvalues not converged
     c_bands: 11 eigenvalues not converged
     c_bands:  9 eigenvalues not converged
     c_bands:  9 eigenvalues not converged
     c_bands:  9 eigenvalues not converged
     c_bands: 10 eigenvalues not converged
     c_bands: 11 eigenvalues not converged
     c_bands:  9 eigenvalues not converged
     c_bands: 11 eigenvalues not converged
     c_bands: 10 eigenvalues not converged
     c_bands: 11 eigenvalues not converged
     c_bands: 10 eigenvalues not converged
     c_bands: 12 eigenvalues not converged
     c_bands: 10 eigenvalues not converged
     c_bands: 11 eigenvalues not converged
     c_bands:  9 eigenvalues not converged
     c_bands: 12 eigenvalues not converged
     c_bands: 11 eigenvalues not converged
     c_bands: 11 eigenvalues not converged
     c_bands: 10 eigenvalues not converged
     c_bands: 12 eigenvalues not converged
     c_bands: 11 eigenvalues not converged
     c_bands: 12 eigenvalues not converged
     c_bands: 12 eigenvalues not converged
     c_bands: 11 eigenvalues not converged
     c_bands: 11 eigenvalues not converged
     c_bands: 11 eigenvalues not converged
     c_bands: 13 eigenvalues not converged
     c_bands: 10 eigenvalues not converged
     c_bands: 12 eigenvalues not converged
     c_bands: 10 eigenvalues not converged
     c_bands: 11 eigenvalues not converged
     c_bands:  9 eigenvalues not converged
     c_bands:  9 eigenvalues not converged
     c_bands: 11 eigenvalues not converged
     c_bands: 12 eigenvalues not converged
     c_bands: 13 eigenvalues not converged
     c_bands: 10 eigenvalues not converged
     c_bands: 10 eigenvalues not converged
     c_bands: 10 eigenvalues not converged
     c_bands: 10 eigenvalues not converged
     c_bands: 10 eigenvalues not converged
     c_bands: 10 eigenvalues not converged
     c_bands: 11 eigenvalues not converged
     c_bands: 12 eigenvalues not converged
     c_bands: 10 eigenvalues not converged
     c_bands: 10 eigenvalues not converged
     c_bands:  9 eigenvalues not converged
     c_bands: 10 eigenvalues not converged
     c_bands: 11 eigenvalues not converged
     c_bands: 10 eigenvalues not converged
     c_bands:  9 eigenvalues not converged
     c_bands:  9 eigenvalues not converged
     c_bands: 10 eigenvalues not converged
     c_bands:  9 eigenvalues not converged
     c_bands:  9 eigenvalues not converged
     c_bands:  9 eigenvalues not converged
     c_bands:  9 eigenvalues not converged
     c_bands:  9 eigenvalues not converged
     c_bands:  9 eigenvalues not converged
     c_bands: 11 eigenvalues not converged
     c_bands: 10 eigenvalues not converged
     c_bands:  9 eigenvalues not converged
     c_bands: 11 eigenvalues not converged
     c_bands: 10 eigenvalues not converged
     c_bands: 11 eigenvalues not converged
     c_bands: 10 eigenvalues not converged
     c_bands: 11 eigenvalues not converged
     c_bands: 11 eigenvalues not converged
     c_bands: 11 eigenvalues not converged
     c_bands: 11 eigenvalues not converged
     c_bands: 11 eigenvalues not converged
     c_bands: 11 eigenvalues not converged
     c_bands: 10 eigenvalues not converged
     c_bands:  9 eigenvalues not converged
     c_bands: 10 eigenvalues not converged
     c_bands: 10 eigenvalues not converged
     c_bands: 11 eigenvalues not converged
     c_bands:  9 eigenvalues not converged
     c_bands:  9 eigenvalues not converged
     c_bands: 10 eigenvalues not converged
     c_bands:  9 eigenvalues not converged
     c_bands: 11 eigenvalues not converged
     c_bands: 12 eigenvalues not converged
     c_bands: 12 eigenvalues not converged
     c_bands:  9 eigenvalues not converged
     c_bands:  9 eigenvalues not converged
     c_bands: 10 eigenvalues not converged
     c_bands: 11 eigenvalues not converged

     ethr =  2.66E-12,  avg # of iterations = 82.2

     total cpu time spent up to now is    29216.7 secs

     End of band structure calculation

          k = 0.0625 0.1083-0.2308 ( 96006 PWs)   bands (ev):

  -113.4893-113.4840-113.4804-113.2967 -70.9626 -70.9576 -70.9574 -70.9534
   -70.9522 -70.9510 -70.8124 -70.8083 -70.7936 -70.7859 -70.7830 -70.5146
   -25.1437 -22.8643 -20.4165 -18.4177 -18.0340 -17.8814 -17.8751 -17.8693
   -17.0732 -17.0685 -17.0639 -17.0309 -16.7883 -16.6422 -16.6275 -16.5997
   -16.5955 -16.5939 -16.3858 -16.3835 -16.3746 -16.3535 -16.3518 -16.3479
   -16.3460 -16.3439 -16.3362 -16.3310 -16.3300 -16.3155 -16.2433 -16.2384
   -16.2286 -15.5541 -15.5456 -15.5234 -15.4605 -15.2891 -15.1060 -15.0936
   -15.0910 -14.9467 -14.9390 -14.8248 -14.8115 -14.8009 -14.4718 -14.4631
   -14.4584 -14.3557 -14.3446 -13.8968 -12.3219 -12.2528 -11.9758 -11.7018
   -11.6831 -11.6723 -11.3233 -10.5624 -10.5149 -10.0318 -10.0180  -9.9941
    -9.9653  -9.3083  -9.2784  -8.9205  -8.8785  -8.6538  -8.6405  -8.6246
    -8.5150  -8.0588  -7.9874  -7.9530  -7.9467  -7.8989  -7.8794  -7.8411
    -7.6647  -7.6381  -7.6282  -7.4217  -7.3751  -7.3687  -7.3018  -7.2768
    -7.2513  -7.1735  -6.9305  -6.8283  -6.7582  -6.7248  -6.7140  -6.5892
    -6.5656  -6.5522  -6.4873  -6.2124  -5.9352  -5.7963  -5.7210  -5.7158
    -5.5835  -5.4960  -5.4890  -5.4262  -5.3288  -5.2684  -5.2311  -5.1796
    -5.1692  -5.1533  -5.1056  -5.0775  -5.0666  -5.0078  -4.9681  -4.9346
    -4.9155  -4.7539  -4.7489  -4.7397  -4.6356  -4.6083  -4.4641  -4.4497
    -4.4371  -4.3171  -4.3075  -4.2875  -4.1188  -4.0828  -4.0572  -4.0281
    -4.0082  -3.9865  -3.9595  -3.8932  -3.8800  -3.7770  -3.5837  -3.5784
    -3.5694  -3.4300  -3.3923  -3.3860  -3.3744  -3.2768  -3.2687  -3.2403
    -3.2300  -3.1676  -3.1555  -3.1418  -3.0961  -3.0819  -3.0713  -3.0249
    -3.0019  -2.9066  -2.8776  -2.7190  -2.6640  -2.6413  -2.5812  -2.5293
    -2.5099  -2.3786  -2.3199  -2.2868  -0.5196  -0.1327  -0.1201  -0.0695
     0.4250   0.6647   0.7069   0.7265   0.7754   0.7937   0.8241   1.0194
     1.0444   1.0596   1.1882   1.2046   1.2359   1.2448   1.2765   1.3259
     1.5147   1.6375   1.6515   1.6675   1.7058   1.7340   1.8120   2.0062
     2.0141   2.0374   2.0518   2.3802   2.4411   2.4969   2.5281   2.5373
     2.6975   2.7812   2.8346   2.8594   2.9155   3.0127   3.0771   3.1574
     3.2045   3.2234   3.2468   3.2740   3.2997   3.3676   3.3845   3.4645
     3.5407   3.5652   3.6374   3.6760   3.6968   3.7435   3.7871   3.8304
     3.9582   4.0009   4.0603   4.1542   4.1742   4.2203   4.2479   4.3137
     4.3450   4.3702   4.4009   4.4666

          k = 0.0625 0.2526-0.2308 ( 96096 PWs)   bands (ev):

  -113.4893-113.4840-113.4804-113.2967 -70.9626 -70.9576 -70.9574 -70.9534
   -70.9522 -70.9510 -70.8124 -70.8083 -70.7936 -70.7859 -70.7830 -70.5146
   -25.1437 -22.8643 -20.4165 -18.4177 -18.0201 -17.8948 -17.8798 -17.8682
   -17.0698 -17.0664 -17.0616 -17.0370 -16.7882 -16.6402 -16.6129 -16.6063
   -16.6039 -16.5993 -16.3984 -16.3831 -16.3664 -16.3533 -16.3510 -16.3481
   -16.3451 -16.3432 -16.3373 -16.3320 -16.3306 -16.3142 -16.2616 -16.2404
   -16.2188 -15.5388 -15.5083 -15.4768 -15.4603 -15.2898 -15.1423 -15.1179
   -15.0803 -15.0031 -14.9548 -14.8170 -14.7856 -14.7594 -14.4835 -14.4687
   -14.4498 -14.3974 -14.3567 -13.8967 -12.2717 -12.2349 -11.9758 -11.7466
   -11.6956 -11.6535 -11.3232 -10.5496 -10.4818 -10.0773 -10.0148  -9.9800
    -9.9555  -9.3083  -9.2785  -8.8964  -8.8781  -8.6705  -8.6267  -8.5830
    -8.5146  -8.0656  -8.0221  -7.9880  -7.9704  -7.9422  -7.8679  -7.8187
    -7.6984  -7.6727  -7.6355  -7.4689  -7.4351  -7.4080  -7.3651  -7.2831
    -7.1927  -7.1746  -6.9300  -6.8293  -6.8092  -6.7551  -6.7224  -6.5054
    -6.4750  -6.4657  -6.4138  -6.2109  -5.9345  -5.7621  -5.6818  -5.6707
    -5.5796  -5.5010  -5.4770  -5.4008  -5.3214  -5.2677  -5.2334  -5.1898
    -5.1603  -5.1460  -5.1072  -5.0921  -5.0597  -4.9935  -4.9736  -4.9496
    -4.9224  -4.7661  -4.7558  -4.7342  -4.6560  -4.6395  -4.4950  -4.4584
    -4.4477  -4.3307  -4.3156  -4.3020  -4.1587  -4.0652  -4.0372  -3.9941
    -3.9788  -3.9604  -3.9268  -3.8728  -3.8513  -3.7298  -3.5764  -3.5705
    -3.5581  -3.4018  -3.3918  -3.3676  -3.3553  -3.3035  -3.2647  -3.2392
    -3.2271  -3.1835  -3.1592  -3.1344  -3.1200  -3.0928  -3.0504  -3.0240
    -3.0091  -2.9751  -2.9176  -2.7441  -2.6985  -2.6490  -2.6225  -2.5595
    -2.5257  -2.4862  -2.3697  -2.2870  -0.3806  -0.1624  -0.1181  -0.0442
     0.5178   0.5903   0.6435   0.7392   0.8085   0.8676   0.9249   0.9982
     1.0445   1.1089   1.1542   1.1930   1.2084   1.2491   1.2803   1.3340
     1.5224   1.5691   1.6352   1.6554   1.6960   1.7218   1.7982   1.9983
     2.0347   2.0628   2.0749   2.3409   2.4276   2.4609   2.4816   2.5771
     2.6767   2.7765   2.8389   2.8607   2.9097   2.9816   3.0717   3.1286
     3.1664   3.2059   3.2186   3.2490   3.2882   3.3485   3.3990   3.4760
     3.5258   3.6128   3.6620   3.7074   3.7640   3.7797   3.8450   3.8859
     3.9380   4.0057   4.0609   4.1338   4.1590   4.2339   4.2491   4.3008
     4.3223   4.3604   4.4111   4.4773

          k = 0.0625 0.3969-0.2308 ( 96092 PWs)   bands (ev):

  -113.4893-113.4840-113.4804-113.2967 -70.9626 -70.9576 -70.9574 -70.9534
   -70.9522 -70.9510 -70.8124 -70.8083 -70.7936 -70.7859 -70.7830 -70.5146
   -25.1437 -22.8643 -20.4165 -18.4177 -17.9969 -17.9199 -17.8828 -17.8670
   -17.0660 -17.0632 -17.0580 -17.0452 -16.7881 -16.6365 -16.6280 -16.6194
   -16.6137 -16.5558 -16.4293 -16.3783 -16.3606 -16.3525 -16.3498 -16.3483
   -16.3445 -16.3421 -16.3386 -16.3333 -16.3314 -16.3111 -16.2843 -16.2396
   -16.2087 -15.5142 -15.4723 -15.4597 -15.3871 -15.2908 -15.1885 -15.1515
   -15.0963 -15.0566 -14.9812 -14.8039 -14.7651 -14.6854 -14.4989 -14.4802
   -14.4628 -14.4319 -14.3761 -13.8967 -12.2605 -12.1396 -11.9758 -11.8359
   -11.6956 -11.6363 -11.3231 -10.5445 -10.4100 -10.1592 -10.0039  -9.9789
    -9.9295  -9.3082  -9.2786  -8.8792  -8.8536  -8.7116  -8.5956  -8.5316
    -8.5105  -8.0867  -8.0479  -8.0267  -8.0160  -7.9990  -7.8686  -7.7629
    -7.7105  -7.6871  -7.6481  -7.5548  -7.5194  -7.4549  -7.4296  -7.2886
    -7.1771  -7.0927  -6.9303  -6.8482  -6.8239  -6.7909  -6.7693  -6.4437
    -6.3968  -6.3505  -6.3202  -6.2069  -5.9346  -5.7132  -5.6386  -5.5959
    -5.5781  -5.4950  -5.4616  -5.3901  -5.3184  -5.2715  -5.2466  -5.1889
    -5.1476  -5.1343  -5.1225  -5.0802  -5.0557  -5.0002  -4.9710  -4.9593
    -4.9284  -4.8002  -4.7566  -4.7341  -4.6875  -4.6396  -4.5390  -4.4895
    -4.4862  -4.3237  -4.3144  -4.2902  -4.1894  -4.0360  -4.0059  -3.9706
    -3.9598  -3.9312  -3.8936  -3.8375  -3.8115  -3.6919  -3.5971  -3.5836
    -3.5543  -3.4471  -3.3921  -3.3537  -3.3319  -3.3081  -3.2680  -3.2503
    -3.2274  -3.1855  -3.1644  -3.1432  -3.1194  -3.0935  -3.0564  -3.0239
    -3.0006  -2.9571  -2.9207  -2.7912  -2.7574  -2.7067  -2.6638  -2.6460
    -2.5479  -2.4734  -2.4488  -2.2939  -0.2257  -0.1921  -0.1368  -0.0246
     0.5018   0.5724   0.6155   0.7341   0.7997   0.8918   1.0088   1.0399
     1.0796   1.1256   1.1623   1.1847   1.2079   1.2622   1.3323   1.3733
     1.4724   1.5357   1.5913   1.6532   1.6859   1.7088   1.7668   1.9934
     2.0777   2.0989   2.1509   2.3048   2.3792   2.4210   2.4644   2.5992
     2.6527   2.7181   2.7858   2.8339   2.8686   2.9418   3.0643   3.1161
     3.1824   3.1960   3.2337   3.2716   3.3291   3.3541   3.4101   3.4885
     3.5175   3.5864   3.6988   3.7319   3.7529   3.8001   3.8666   3.8943
     3.9181   4.0575   4.0811   4.1421   4.1740   4.1970   4.2424   4.2894
     4.3257   4.3513   4.4130   4.5081

          k = 0.0625 0.5413-0.2308 ( 96066 PWs)   bands (ev):

  -113.4893-113.4840-113.4804-113.2967 -70.9626 -70.9576 -70.9574 -70.9534
   -70.9522 -70.9510 -70.8124 -70.8083 -70.7936 -70.7859 -70.7830 -70.5146
   -25.1437 -22.8643 -20.4165 -18.4177 -17.9681 -17.9501 -17.8841 -17.8665
   -17.0639 -17.0589 -17.0566 -17.0512 -16.7881 -16.6374 -16.6314 -16.6248
   -16.6227 -16.5032 -16.4760 -16.3749 -16.3594 -16.3512 -16.3490 -16.3481
   -16.3452 -16.3413 -16.3389 -16.3343 -16.3318 -16.3051 -16.3000 -16.2386
   -16.2036 -15.4947 -15.4614 -15.4493 -15.3008 -15.2690 -15.2236 -15.2066
   -15.1640 -15.0331 -15.0098 -14.7928 -14.7572 -14.5982 -14.5505 -14.5070
   -14.4816 -14.4106 -14.3993 -13.8967 -12.2593 -12.0174 -11.9767 -11.9494
   -11.6942 -11.6276 -11.3229 -10.5433 -10.3136 -10.2606  -9.9967  -9.9777
    -9.9151  -9.3082  -9.2788  -8.8790  -8.8022  -8.7644  -8.5719  -8.5195
    -8.4872  -8.0988  -8.0676  -8.0570  -8.0450  -8.0242  -7.8696  -7.7134
    -7.6976  -7.6741  -7.6515  -7.6268  -7.5897  -7.4878  -7.4653  -7.2909
    -7.1777  -6.9713  -6.9306  -6.9050  -6.8591  -6.8241  -6.7706  -6.4096
    -6.3818  -6.2843  -6.2563  -6.1994  -5.9354  -5.6886  -5.6172  -5.5737
    -5.5076  -5.4821  -5.4491  -5.4305  -5.3320  -5.2803  -5.2479  -5.1804
    -5.1414  -5.1369  -5.1222  -5.0647  -5.0450  -5.0129  -4.9803  -4.9649
    -4.9040  -4.8475  -4.7596  -4.7212  -4.7039  -4.6259  -4.5661  -4.5403
    -4.5019  -4.3151  -4.2881  -4.2772  -4.2197  -4.0134  -3.9844  -3.9689
    -3.9438  -3.9108  -3.8672  -3.8144  -3.7744  -3.6980  -3.6468  -3.6109
    -3.5693  -3.4991  -3.3920  -3.3226  -3.3101  -3.2914  -3.2624  -3.2511
    -3.2273  -3.1913  -3.1741  -3.1446  -3.1265  -3.1093  -3.0496  -2.9990
    -2.9921  -2.9451  -2.8958  -2.8258  -2.8166  -2.7625  -2.6738  -2.6384
    -2.5657  -2.5199  -2.4522  -2.3031  -0.2157  -0.1581  -0.0958  -0.0515
     0.4478   0.5350   0.6727   0.7142   0.7617   0.8868   1.0374   1.0822
     1.1299   1.1389   1.1651   1.2002   1.2243   1.2712   1.3487   1.4149
     1.4971   1.5093   1.5370   1.6489   1.6795   1.7023   1.7339   1.9947
     2.0976   2.1453   2.2097   2.2922   2.3711   2.4125   2.4277   2.5661
     2.6004   2.7230   2.7463   2.8060   2.8487   2.8980   3.0372   3.1530
     3.1908   3.2345   3.2821   3.3022   3.3415   3.3706   3.4575   3.4943
     3.5210   3.5327   3.5574   3.7105   3.7767   3.8334   3.8570   3.9223
     3.9858   4.0478   4.0990   4.1222   4.1768   4.2425   4.2533   4.3130
     4.3386   4.3643   4.3949   4.4934

          k = 0.0625-0.4691-0.2308 ( 96096 PWs)   bands (ev):

  -113.4893-113.4840-113.4804-113.2967 -70.9626 -70.9576 -70.9574 -70.9534
   -70.9522 -70.9510 -70.8124 -70.8083 -70.7936 -70.7859 -70.7830 -70.5146
   -25.1437 -22.8643 -20.4165 -18.4177 -17.9828 -17.9348 -17.8837 -17.8667
   -17.0652 -17.0605 -17.0565 -17.0491 -16.7881 -16.6366 -16.6288 -16.6256
   -16.6183 -16.5301 -16.4517 -16.3743 -16.3615 -16.3513 -16.3495 -16.3479
   -16.3449 -16.3417 -16.3387 -16.3342 -16.3316 -16.3086 -16.2933 -16.2386
   -16.2060 -15.4996 -15.4636 -15.4581 -15.3335 -15.2886 -15.2146 -15.1616
   -15.1455 -15.0480 -14.9940 -14.7927 -14.7656 -14.6383 -14.5151 -14.5000
   -14.4781 -14.4237 -14.3862 -13.8967 -12.2594 -12.0795 -11.9759 -11.8909
   -11.6945 -11.6310 -11.3228 -10.5439 -10.3630 -10.2093  -9.9987  -9.9765
    -9.9222  -9.3082  -9.2788  -8.8796  -8.8265  -8.7398  -8.5772  -8.5251
    -8.4985  -8.0947  -8.0721  -8.0496  -8.0291  -7.9966  -7.8689  -7.7425
    -7.7262  -7.6737  -7.6352  -7.5946  -7.5665  -7.4754  -7.4520  -7.2900
    -7.1774  -7.0343  -6.9303  -6.8557  -6.8467  -6.8238  -6.7643  -6.4253
    -6.3951  -6.3077  -6.2703  -6.2029  -5.9354  -5.6991  -5.6180  -5.5753
    -5.5504  -5.4911  -5.4495  -5.4028  -5.3288  -5.2809  -5.2452  -5.1905
    -5.1427  -5.1343  -5.1216  -5.0747  -5.0351  -5.0170  -4.9830  -4.9644
    -4.9080  -4.8286  -4.7592  -4.7203  -4.7008  -4.6350  -4.5547  -4.5274
    -4.4877  -4.3164  -4.2955  -4.2839  -4.2093  -4.0275  -4.0017  -3.9703
    -3.9420  -3.9075  -3.8813  -3.8278  -3.7890  -3.6871  -3.6323  -3.5851
    -3.5732  -3.4824  -3.3921  -3.3316  -3.3200  -3.2952  -3.2669  -3.2448
    -3.2244  -3.1985  -3.1666  -3.1542  -3.1301  -3.0955  -3.0439  -3.0179
    -2.9986  -2.9491  -2.8964  -2.8334  -2.7802  -2.7469  -2.6738  -2.6281
    -2.5514  -2.5182  -2.4437  -2.3049  -0.2158  -0.1609  -0.1299  -0.0334
     0.4598   0.5582   0.6529   0.7158   0.7614   0.9116   1.0147   1.0902
     1.1008   1.1322   1.1768   1.1949   1.2280   1.2544   1.3421   1.3937
     1.4521   1.5308   1.5752   1.6474   1.6963   1.7065   1.7332   2.0042
     2.0714   2.1280   2.1887   2.2929   2.3700   2.4091   2.4621   2.5735
     2.6148   2.7185   2.7522   2.8349   2.8622   2.9155   3.0357   3.1497
     3.1956   3.2187   3.2522   3.2994   3.3127   3.3857   3.4066   3.4930
     3.5359   3.5605   3.6263   3.7037   3.7658   3.8270   3.8430   3.9364
     3.9562   4.0465   4.1031   4.1482   4.1990   4.2203   4.2533   4.2779
     4.3165   4.3746   4.4232   4.4459

          k = 0.0625-0.3248-0.2308 ( 96052 PWs)   bands (ev):

  -113.4893-113.4840-113.4804-113.2967 -70.9626 -70.9576 -70.9574 -70.9534
   -70.9522 -70.9510 -70.8124 -70.8083 -70.7936 -70.7859 -70.7830 -70.5146
   -25.1437 -22.8643 -20.4165 -18.4177 -18.0095 -17.9060 -17.8817 -17.8676
   -17.0688 -17.0643 -17.0592 -17.0414 -16.7882 -16.6373 -16.6200 -16.6142
   -16.6084 -16.5802 -16.4125 -16.3767 -16.3666 -16.3524 -16.3506 -16.3479
   -16.3444 -16.3428 -16.3380 -16.3328 -16.3311 -16.3129 -16.2736 -16.2393
   -16.2145 -15.5242 -15.4935 -15.4605 -15.4339 -15.2897 -15.1743 -15.1223
   -15.0784 -15.0444 -14.9646 -14.8036 -14.7846 -14.7206 -14.4920 -14.4722
   -14.4441 -14.4286 -14.3652 -13.8967 -12.2622 -12.1948 -11.9758 -11.7867
   -11.6960 -11.6450 -11.3228 -10.5469 -10.4491 -10.1152 -10.0072  -9.9755
    -9.9479  -9.3082  -9.2786  -8.8853  -8.8696  -8.6911  -8.6069  -8.5628
    -8.5118  -8.0716  -8.0424  -8.0285  -7.9780  -7.9531  -7.8661  -7.7951
    -7.7331  -7.6653  -7.6443  -7.5117  -7.4750  -7.4305  -7.3990  -7.2859
    -7.1762  -7.1477  -6.9300  -6.8350  -6.8229  -6.7581  -6.7488  -6.4811
    -6.4384  -6.4058  -6.3570  -6.2093  -5.9350  -5.7369  -5.6503  -5.6414
    -5.5831  -5.4970  -5.4656  -5.3891  -5.3192  -5.2719  -5.2372  -5.1982
    -5.1520  -5.1402  -5.1175  -5.0935  -5.0412  -5.0056  -4.9745  -4.9525
    -4.9257  -4.7753  -4.7631  -4.7349  -4.6650  -4.6478  -4.5131  -4.4825
    -4.4550  -4.3221  -4.3167  -4.3003  -4.1758  -4.0573  -4.0293  -3.9818
    -3.9612  -3.9363  -3.9162  -3.8595  -3.8288  -3.7072  -3.5828  -3.5677
    -3.5592  -3.3974  -3.3917  -3.3668  -3.3533  -3.3136  -3.2664  -3.2362
    -3.2151  -3.1994  -3.1676  -3.1433  -3.1216  -3.0926  -3.0608  -3.0188
    -2.9878  -2.9849  -2.9288  -2.7652  -2.7411  -2.6674  -2.6264  -2.5999
    -2.5636  -2.4669  -2.4097  -2.2996  -0.2981  -0.1906  -0.1140  -0.0317
     0.5285   0.5698   0.6312   0.7246   0.8003   0.9045   0.9811   1.0014
     1.0655   1.1376   1.1590   1.1856   1.2075   1.2403   1.2866   1.3400
     1.5354   1.5450   1.5913   1.6502   1.6974   1.7166   1.7869   2.0043
     2.0370   2.0805   2.1116   2.3233   2.3906   2.4415   2.4807   2.5859
     2.6634   2.7530   2.8337   2.8410   2.8909   2.9620   3.0651   3.1158
     3.1661   3.1944   3.2138   3.2808   3.2990   3.3498   3.4220   3.4824
     3.5265   3.5951   3.6773   3.7245   3.7792   3.8095   3.8371   3.8996
     3.9259   4.0311   4.0669   4.1346   4.1826   4.2020   4.2490   4.2758
     4.3210   4.3521   4.4319   4.5081

          k = 0.0625-0.1804-0.2308 ( 96040 PWs)   bands (ev):

  -113.4893-113.4840-113.4804-113.2967 -70.9626 -70.9576 -70.9574 -70.9534
   -70.9522 -70.9510 -70.8124 -70.8083 -70.7936 -70.7859 -70.7830 -70.5146
   -25.1437 -22.8643 -20.4165 -18.4177 -18.0284 -17.8852 -17.8789 -17.8687
   -17.0725 -17.0670 -17.0627 -17.0338 -16.7883 -16.6391 -16.6185 -16.6042
   -16.6016 -16.5976 -16.3903 -16.3799 -16.3746 -16.3533 -16.3516 -16.3480
   -16.3451 -16.3438 -16.3367 -16.3311 -16.3307 -16.3149 -16.2514 -16.2386
   -16.2253 -15.5478 -15.5272 -15.5068 -15.4604 -15.2891 -15.1279 -15.0945
   -15.0903 -14.9733 -14.9418 -14.8164 -14.8054 -14.7830 -14.4752 -14.4667
   -14.4558 -14.3723 -14.3503 -13.8967 -12.2964 -12.2502 -11.9758 -11.7147
   -11.6948 -11.6632 -11.3230 -10.5560 -10.5026 -10.0493 -10.0146  -9.9830
    -9.9691  -9.3083  -9.2785  -8.9114  -8.8773  -8.6591  -8.6357  -8.6095
    -8.5141  -8.0601  -8.0035  -7.9775  -7.9452  -7.9205  -7.8590  -7.8463
    -7.6741  -7.6542  -7.6388  -7.4431  -7.3995  -7.3829  -7.3305  -7.2784
    -7.2295  -7.1743  -6.9301  -6.8277  -6.7838  -6.7325  -6.7193  -6.5542
    -6.5276  -6.5130  -6.4523  -6.2119  -5.9353  -5.7804  -5.7047  -5.6972
    -5.5843  -5.4967  -5.4808  -5.4139  -5.3252  -5.2685  -5.2320  -5.1857
    -5.1654  -5.1526  -5.1093  -5.0884  -5.0527  -5.0040  -4.9720  -4.9349
    -4.9239  -4.7620  -4.7502  -4.7349  -4.6440  -4.6237  -4.4777  -4.4515
    -4.4350  -4.3186  -4.3148  -4.2988  -4.1401  -4.0740  -4.0543  -4.0154
    -3.9873  -3.9663  -3.9522  -3.8892  -3.8664  -3.7544  -3.5814  -3.5717
    -3.5629  -3.4188  -3.3924  -3.3746  -3.3670  -3.2882  -3.2622  -3.2477
    -3.2187  -3.1764  -3.1571  -3.1349  -3.1113  -3.0781  -3.0699  -3.0295
    -2.9993  -2.9488  -2.8966  -2.7317  -2.6830  -2.6393  -2.5922  -2.5502
    -2.5037  -2.4277  -2.3440  -2.2941  -0.4572  -0.1576  -0.1042  -0.0589
     0.4672   0.6177   0.7009   0.7216   0.8061   0.8204   0.8632   1.0076
     1.0523   1.0819   1.1745   1.1987   1.2247   1.2442   1.2658   1.3285
     1.5186   1.6160   1.6386   1.6619   1.7026   1.7246   1.8121   1.9983
     2.0234   2.0503   2.0570   2.3630   2.4526   2.4639   2.4963   2.5459
     2.7080   2.7928   2.8412   2.8607   2.9118   2.9749   3.1062   3.1298
     3.1793   3.2025   3.2347   3.2671   3.2975   3.3584   3.4091   3.4725
     3.5243   3.5779   3.6509   3.6916   3.7366   3.7592   3.8175   3.8634
     3.9519   4.0332   4.0683   4.1172   4.1335   4.1904   4.2386   4.3261
     4.3564   4.3834   4.4227   4.4655

          k = 0.0625-0.0361-0.2308 ( 95996 PWs)   bands (ev):

  -113.4893-113.4840-113.4804-113.2967 -70.9626 -70.9576 -70.9574 -70.9534
   -70.9522 -70.9510 -70.8124 -70.8083 -70.7936 -70.7859 -70.7830 -70.5146
   -25.1437 -22.8643 -20.4165 -18.4177 -18.0369 -17.8782 -17.8755 -17.8685
   -17.0743 -17.0688 -17.0642 -17.0296 -16.7883 -16.6399 -16.6359 -16.5968
   -16.5937 -16.5905 -16.3836 -16.3822 -16.3783 -16.3537 -16.3520 -16.3479
   -16.3460 -16.3441 -16.3360 -16.3306 -16.3299 -16.3157 -16.2413 -16.2343
   -16.2324 -15.5592 -15.5531 -15.5318 -15.4605 -15.2890 -15.0999 -15.0944
   -15.0849 -14.9400 -14.9305 -14.8251 -14.8203 -14.8079 -14.4679 -14.4648
   -14.4590 -14.3457 -14.3433 -13.8968 -12.3354 -12.2538 -11.9758 -11.6909
   -11.6876 -11.6714 -11.3232 -10.5676 -10.5191 -10.0234 -10.0121 -10.0061
    -9.9645  -9.3083  -9.2784  -8.9256  -8.8783  -8.6504  -8.6461  -8.6319
    -8.5148  -8.0579  -7.9815  -7.9474  -7.9347  -7.8965  -7.8766  -7.8443
    -7.6486  -7.6343  -7.6265  -7.4149  -7.3632  -7.3563  -7.2852  -7.2724
    -7.2660  -7.1732  -6.9308  -6.8282  -6.7301  -6.7220  -6.7163  -6.6143
    -6.5853  -6.5808  -6.5060  -6.2126  -5.9356  -5.8026  -5.7284  -5.7264
    -5.5869  -5.4954  -5.4885  -5.4324  -5.3304  -5.2685  -5.2317  -5.1761
    -5.1727  -5.1553  -5.1066  -5.0764  -5.0620  -5.0136  -4.9662  -4.9277
    -4.9175  -4.7589  -4.7431  -4.7386  -4.6307  -4.5976  -4.4593  -4.4500
    -4.4356  -4.3117  -4.3048  -4.2776  -4.1010  -4.0869  -4.0591  -4.0397
    -4.0230  -4.0013  -3.9629  -3.8942  -3.8872  -3.7915  -3.5848  -3.5805
    -3.5758  -3.4358  -3.3927  -3.3886  -3.3825  -3.2791  -3.2656  -3.2443
    -3.2255  -3.1651  -3.1592  -3.1488  -3.0878  -3.0845  -3.0675  -3.0171
    -3.0045  -2.8804  -2.8657  -2.7161  -2.6542  -2.6405  -2.5877  -2.5117
    -2.5036  -2.3411  -2.3118  -2.2913  -0.5540  -0.1345  -0.1201  -0.0698
     0.4010   0.6889   0.6986   0.7380   0.7610   0.7771   0.8034   1.0231
     1.0442   1.0495   1.1953   1.2039   1.2411   1.2584   1.2766   1.3238
     1.5146   1.6398   1.6580   1.6801   1.7105   1.7330   1.8163   1.9993
     2.0135   2.0414   2.0498   2.4044   2.4268   2.4796   2.5444   2.5518
     2.7157   2.7747   2.8180   2.8510   2.9137   3.0011   3.0965   3.1643
     3.2002   3.2455   3.2606   3.2800   3.3118   3.3654   3.4217   3.4547
     3.5211   3.5684   3.6059   3.6603   3.6847   3.7235   3.8017   3.8415
     3.9132   3.9854   4.0749   4.1166   4.1703   4.2585   4.2790   4.3119
     4.3258   4.3837   4.4119   4.4566

          k = 0.1875 0.3248-0.2308 ( 96062 PWs)   bands (ev):

  -113.4893-113.4840-113.4804-113.2967 -70.9626 -70.9576 -70.9574 -70.9534
   -70.9522 -70.9510 -70.8124 -70.8083 -70.7936 -70.7859 -70.7830 -70.5146
   -25.1437 -22.8643 -20.4165 -18.4177 -18.0018 -17.9059 -17.8967 -17.8617
   -17.0669 -17.0639 -17.0582 -17.0435 -16.7882 -16.6381 -16.6282 -16.6155
   -16.6122 -16.5640 -16.4040 -16.4001 -16.3566 -16.3526 -16.3502 -16.3479
   -16.3450 -16.3425 -16.3384 -16.3338 -16.3305 -16.3119 -16.2684 -16.2655
   -16.1967 -15.5304 -15.4613 -15.4431 -15.4291 -15.2915 -15.1966 -15.1032
   -15.0920 -15.0682 -14.9793 -14.8156 -14.7355 -14.7245 -14.5053 -14.4579
   -14.4519 -14.4450 -14.3710 -13.8967 -12.2616 -12.1605 -11.9758 -11.7763
   -11.7586 -11.6158 -11.3236 -10.5447 -10.4259 -10.0932 -10.0828  -9.9781
    -9.9064  -9.3083  -9.2785  -8.8782  -8.8632  -8.6707  -8.6554  -8.5227
    -8.5043  -8.0907  -8.0521  -8.0375  -7.9992  -7.9373  -7.8694  -7.7950
    -7.7624  -7.6650  -7.6277  -7.5421  -7.4783  -7.4638  -7.4262  -7.2883
    -7.1770  -7.1098  -6.9317  -6.8900  -6.8251  -6.7518  -6.7354  -6.4412
    -6.4126  -6.3727  -6.3410  -6.2071  -5.9335  -5.7286  -5.6359  -5.6154
    -5.5694  -5.5028  -5.4675  -5.3892  -5.3202  -5.2691  -5.2491  -5.1887
    -5.1426  -5.1362  -5.1101  -5.0797  -5.0679  -4.9983  -4.9743  -4.9592
    -4.9173  -4.7905  -4.7645  -4.7454  -4.6785  -4.6444  -4.5300  -4.4998
    -4.4702  -4.3290  -4.3008  -4.2959  -4.1798  -4.0527  -4.0178  -3.9701
    -3.9574  -3.9252  -3.8993  -3.8446  -3.8226  -3.6993  -3.5915  -3.5679
    -3.5624  -3.4278  -3.3924  -3.3607  -3.3443  -3.3075  -3.2589  -3.2522
    -3.2250  -3.1892  -3.1665  -3.1544  -3.1265  -3.0964  -3.0416  -3.0376
    -2.9958  -2.9595  -2.9131  -2.7797  -2.7404  -2.6833  -2.6702  -2.6323
    -2.5928  -2.4478  -2.4271  -2.2816  -0.2561  -0.2094  -0.0857  -0.0510
     0.4809   0.5928   0.6640   0.6990   0.7474   0.9506   0.9942   1.0169
     1.1106   1.1322   1.1559   1.1970   1.2143   1.2439   1.2735   1.3357
     1.4619   1.5485   1.6383   1.6585   1.6743   1.7235   1.7638   1.9728
     2.0842   2.1065   2.1350   2.3203   2.4052   2.4166   2.4717   2.6130
     2.6447   2.7113   2.7899   2.8433   2.8873   2.9508   3.0692   3.1258
     3.1663   3.2009   3.2317   3.2789   3.3315   3.3621   3.4119   3.4813
     3.5355   3.6164   3.6935   3.7220   3.7796   3.7942   3.8182   3.8871
     3.9391   3.9803   4.0212   4.1362   4.1700   4.2189   4.2396   4.2736
     4.3099   4.3789   4.4218   4.5166

          k = 0.1875 0.4691-0.2308 ( 96084 PWs)   bands (ev):

  -113.4893-113.4840-113.4804-113.2967 -70.9626 -70.9576 -70.9574 -70.9534
   -70.9522 -70.9510 -70.8124 -70.8083 -70.7936 -70.7859 -70.7830 -70.5146
   -25.1437 -22.8643 -20.4165 -18.4177 -17.9759 -17.9302 -17.9050 -17.8576
   -17.0647 -17.0612 -17.0548 -17.0496 -16.7881 -16.6405 -16.6341 -16.6225
   -16.6216 -16.5158 -16.4384 -16.4025 -16.3531 -16.3511 -16.3490 -16.3482
   -16.3449 -16.3417 -16.3392 -16.3351 -16.3308 -16.3071 -16.2899 -16.2696
   -16.1806 -15.5167 -15.4608 -15.3981 -15.3420 -15.2942 -15.2414 -15.1687
   -15.1184 -15.0607 -15.0118 -14.8104 -14.7071 -14.6572 -14.5293 -14.5189
   -14.4555 -14.4269 -14.3930 -13.8967 -12.2596 -12.0503 -11.9753 -11.8695
   -11.7786 -11.5911 -11.3233 -10.5432 -10.3402 -10.1844 -10.0893  -9.9793
    -9.8703  -9.3082  -9.2786  -8.8783  -8.8148  -8.7178  -8.6503  -8.5180
    -8.4393  -8.1134  -8.0815  -8.0567  -8.0416  -7.9554  -7.8757  -7.7977
    -7.7063  -7.6620  -7.6384  -7.6224  -7.5393  -7.5070  -7.4812  -7.2915
    -7.1778  -6.9962  -6.9439  -6.9219  -6.8269  -6.8116  -6.7549  -6.4053
    -6.3383  -6.3055  -6.2793  -6.2013  -5.9341  -5.6929  -5.6009  -5.5572
    -5.5378  -5.4918  -5.4472  -5.4169  -5.3346  -5.2825  -5.2514  -5.1811
    -5.1376  -5.1258  -5.1172  -5.0767  -5.0568  -4.9982  -4.9789  -4.9444
    -4.9203  -4.8216  -4.7813  -4.7394  -4.6981  -4.6521  -4.5685  -4.5250
    -4.5128  -4.3126  -4.2860  -4.2728  -4.1981  -4.0301  -3.9880  -3.9634
    -3.9421  -3.9018  -3.8757  -3.8165  -3.7896  -3.6832  -3.6254  -3.6129
    -3.5700  -3.5085  -3.3923  -3.3481  -3.3124  -3.2956  -3.2771  -3.2529
    -3.2326  -3.1794  -3.1650  -3.1470  -3.1144  -3.0880  -3.0516  -3.0309
    -2.9899  -2.9526  -2.8825  -2.8289  -2.8110  -2.7643  -2.6722  -2.6545
    -2.5928  -2.5034  -2.3988  -2.2918  -0.2426  -0.1427  -0.0985  -0.0494
     0.3971   0.6113   0.6486   0.6863   0.7036   0.9769   1.0331   1.0850
     1.1202   1.1403   1.1668   1.1861   1.2443   1.2702   1.3394   1.3546
     1.3932   1.5242   1.6235   1.6657   1.6727   1.7117   1.7380   1.9347
     2.1311   2.1965   2.2393   2.3066   2.3827   2.3976   2.4372   2.5774
     2.6306   2.6944   2.7569   2.7985   2.8108   2.9013   3.0764   3.1512
     3.1855   3.2369   3.2753   3.3074   3.3734   3.3969   3.4296   3.5015
     3.5314   3.5980   3.6390   3.7071   3.7593   3.7753   3.8462   3.9111
     3.9255   3.9753   4.0588   4.0671   4.1452   4.1886   4.2489   4.3014
     4.3505   4.4019   4.4410   4.4849

          k = 0.1875 0.6134-0.2308 ( 96082 PWs)   bands (ev):

  -113.4893-113.4840-113.4804-113.2967 -70.9626 -70.9576 -70.9574 -70.9534
   -70.9522 -70.9510 -70.8124 -70.8083 -70.7936 -70.7859 -70.7830 -70.5146
   -25.1437 -22.8643 -20.4165 -18.4177 -17.9618 -17.9443 -17.9064 -17.8568
   -17.0647 -17.0585 -17.0561 -17.0505 -16.7881 -16.6435 -16.6294 -16.6274
   -16.6234 -16.4893 -16.4639 -16.4010 -16.3541 -16.3498 -16.3492 -16.3474
   -16.3455 -16.3412 -16.3390 -16.3359 -16.3309 -16.3031 -16.2977 -16.2701
   -16.1774 -15.5112 -15.4606 -15.3914 -15.3041 -15.2784 -15.2521 -15.2244
   -15.1189 -15.0528 -15.0224 -14.8070 -14.7073 -14.6074 -14.5727 -14.5255
   -14.4551 -14.4187 -14.4027 -13.8966 -12.2591 -11.9938 -11.9730 -11.9260
   -11.7811 -11.5861 -11.3229 -10.5433 -10.2881 -10.2382 -10.0886  -9.9793
    -9.8631  -9.3082  -9.2787  -8.8789  -8.7843  -8.7508  -8.6452  -8.5182
    -8.4224  -8.1190  -8.0890  -8.0685  -8.0475  -7.9494  -7.8759  -7.8020
    -7.6824  -7.6742  -7.6602  -7.6049  -7.5717  -7.5161  -7.4955  -7.2922
    -7.1779  -6.9535  -6.9346  -6.9209  -6.8723  -6.8234  -6.7503  -6.3949
    -6.3504  -6.2818  -6.2520  -6.1991  -5.9354  -5.6867  -5.5926  -5.5366
    -5.5126  -5.4860  -5.4465  -5.4289  -5.3529  -5.2876  -5.2467  -5.1850
    -5.1365  -5.1270  -5.1159  -5.0791  -5.0420  -5.0066  -4.9705  -4.9567
    -4.9039  -4.8414  -4.7778  -4.7268  -4.7143  -4.6509  -4.5791  -4.5500
    -4.5051  -4.3083  -4.2735  -4.2594  -4.2122  -4.0267  -3.9858  -3.9707
    -3.9298  -3.8926  -3.8676  -3.8109  -3.7751  -3.6915  -3.6482  -3.6199
    -3.5788  -3.5176  -3.3922  -3.3296  -3.3197  -3.2953  -3.2753  -3.2469
    -3.2227  -3.2011  -3.1629  -3.1383  -3.1154  -3.1051  -3.0524  -3.0044
    -2.9780  -2.9496  -2.9026  -2.8579  -2.8166  -2.7795  -2.6660  -2.6274
    -2.5859  -2.5495  -2.3761  -2.3082  -0.2503  -0.1132  -0.0945  -0.0603
     0.3738   0.6075   0.6584   0.6704   0.6921   0.9912   1.0438   1.0958
     1.1186   1.1426   1.1857   1.2049   1.2476   1.2635   1.3219   1.3510
     1.4130   1.5304   1.6043   1.6634   1.6899   1.7048   1.7262   1.9244
     2.1372   2.2238   2.2636   2.3143   2.3789   2.3990   2.4358   2.5551
     2.5959   2.7097   2.7228   2.7822   2.8384   2.8776   3.0755   3.1579
     3.1977   3.2416   3.2990   3.3376   3.3563   3.3991   3.4729   3.5105
     3.5397   3.5689   3.5967   3.6756   3.7557   3.7841   3.8614   3.9160
     3.9440   3.9891   4.0503   4.0803   4.1454   4.1830   4.2333   4.3191
     4.3798   4.4073   4.4405   4.4519

          k = 0.1875-0.3969-0.2308 ( 96040 PWs)   bands (ev):

  -113.4893-113.4840-113.4804-113.2967 -70.9626 -70.9576 -70.9574 -70.9534
   -70.9522 -70.9510 -70.8124 -70.8083 -70.7936 -70.7859 -70.7830 -70.5146
   -25.1437 -22.8643 -20.4165 -18.4177 -17.9896 -17.9152 -17.9034 -17.8594
   -17.0671 -17.0612 -17.0554 -17.0478 -16.7881 -16.6381 -16.6299 -16.6208
   -16.6173 -16.5420 -16.4200 -16.3994 -16.3569 -16.3509 -16.3500 -16.3472
   -16.3447 -16.3420 -16.3385 -16.3351 -16.3309 -16.3098 -16.2805 -16.2678
   -16.1883 -15.5224 -15.4607 -15.4193 -15.3867 -15.2900 -15.2267 -15.1286
   -15.0993 -15.0812 -14.9894 -14.8100 -14.7240 -14.6873 -14.5171 -14.4880
   -14.4528 -14.4419 -14.3808 -13.8966 -12.2595 -12.1088 -11.9758 -11.8149
   -11.7745 -11.6021 -11.3227 -10.5447 -10.3835 -10.1366 -10.0852  -9.9781
    -9.8885  -9.3082  -9.2787  -8.8807  -8.8359  -8.6965  -8.6521  -8.5211
    -8.4709  -8.1022  -8.0739  -8.0483  -8.0239  -7.9200  -7.8735  -7.8152
    -7.7370  -7.6666  -7.6266  -7.5943  -7.5085  -7.4835  -7.4560  -7.2903
    -7.1772  -7.0582  -6.9350  -6.9095  -6.8259  -6.7747  -6.7427  -6.4171
    -6.3905  -6.3339  -6.2984  -6.2055  -5.9355  -5.7030  -5.6099  -5.5929
    -5.5641  -5.4875  -5.4482  -5.3930  -5.3307  -5.2852  -5.2407  -5.1950
    -5.1402  -5.1317  -5.1182  -5.0905  -5.0418  -5.0083  -4.9698  -4.9578
    -4.9185  -4.7986  -4.7817  -4.7452  -4.6787  -4.6500  -4.5612  -4.5143
    -4.4762  -4.3125  -4.2946  -4.2861  -4.1898  -4.0452  -4.0100  -3.9722
    -3.9384  -3.9057  -3.8908  -3.8343  -3.8051  -3.6853  -3.6054  -3.5888
    -3.5654  -3.4740  -3.3922  -3.3474  -3.3317  -3.3035  -3.2815  -3.2461
    -3.2220  -3.1840  -3.1816  -3.1522  -3.1172  -3.0879  -3.0398  -3.0307
    -3.0083  -2.9531  -2.8926  -2.8009  -2.7861  -2.7365  -2.6801  -2.6256
    -2.5936  -2.4773  -2.3978  -2.3091  -0.2397  -0.1855  -0.0854  -0.0487
     0.4255   0.6262   0.6562   0.6808   0.7110   0.9769   1.0280   1.0556
     1.1196   1.1538   1.1793   1.1959   1.2145   1.2413   1.2842   1.3463
     1.4106   1.5607   1.6200   1.6589   1.6958   1.7068   1.7531   1.9553
     2.0920   2.1579   2.1830   2.3139   2.3780   2.4065   2.4701   2.5691
     2.6309   2.7174   2.7792   2.8209   2.8557   2.9189   3.0628   3.1453
     3.1849   3.2166   3.2368   3.3206   3.3547   3.3768   3.4370   3.4840
     3.5510   3.5956   3.6688   3.7254   3.7553   3.7950   3.8382   3.8890
     3.9358   3.9622   4.0738   4.1222   4.1646   4.1938   4.2180   4.2850
     4.3611   4.4101   4.4303   4.5021

          k = 0.1875-0.2526-0.2308 ( 96066 PWs)   bands (ev):

  -113.4893-113.4840-113.4804-113.2967 -70.9626 -70.9576 -70.9574 -70.9534
   -70.9522 -70.9510 -70.8124 -70.8083 -70.7936 -70.7859 -70.7830 -70.5146
   -25.1437 -22.8643 -20.4165 -18.4177 -18.0121 -17.8973 -17.8903 -17.8649
   -17.0705 -17.0635 -17.0589 -17.0411 -16.7882 -16.6354 -16.6207 -16.6127
   -16.6061 -16.5863 -16.4005 -16.3881 -16.3641 -16.3524 -16.3508 -16.3476
   -16.3444 -16.3432 -16.3378 -16.3331 -16.3310 -16.3131 -16.2646 -16.2536
   -16.2085 -15.5357 -15.4763 -15.4604 -15.4570 -15.2893 -15.1735 -15.1125
   -15.0805 -15.0371 -14.9605 -14.8142 -14.7592 -14.7464 -14.4938 -14.4628
   -14.4513 -14.4208 -14.3640 -13.8967 -12.2628 -12.2063 -11.9758 -11.7583
   -11.7271 -11.6342 -11.3228 -10.5482 -10.4558 -10.0757 -10.0543  -9.9748
    -9.9362  -9.3082  -9.2786  -8.8902  -8.8687  -8.6696  -8.6435  -8.5563
    -8.5098  -8.0691  -8.0500  -8.0093  -7.9746  -7.9492  -7.8663  -7.8017
    -7.7248  -7.6749  -7.6389  -7.5057  -7.4549  -7.4269  -7.3937  -7.2860
    -7.1763  -7.1586  -6.9305  -6.8520  -6.8240  -6.7439  -6.7305  -6.4682
    -6.4476  -6.4291  -6.3797  -6.2095  -5.9355  -5.7385  -5.6685  -5.6440
    -5.5843  -5.4904  -5.4678  -5.3894  -5.3224  -5.2730  -5.2335  -5.1938
    -5.1550  -5.1434  -5.1182  -5.0897  -5.0468  -5.0027  -4.9711  -4.9514
    -4.9274  -4.7790  -4.7597  -4.7379  -4.6733  -4.6294  -4.5183  -4.4732
    -4.4452  -4.3229  -4.3168  -4.2996  -4.1682  -4.0599  -4.0331  -3.9858
    -3.9618  -3.9522  -3.9126  -3.8600  -3.8378  -3.7161  -3.5831  -3.5667
    -3.5542  -3.3966  -3.3912  -3.3647  -3.3566  -3.3189  -3.2684  -3.2440
    -3.2124  -3.1956  -3.1668  -3.1383  -3.1313  -3.0960  -3.0413  -3.0279
    -2.9907  -2.9757  -2.9260  -2.7663  -2.7143  -2.6615  -2.6502  -2.5826
    -2.5632  -2.4507  -2.4028  -2.3044  -0.3162  -0.1974  -0.0966  -0.0404
     0.5248   0.5584   0.6557   0.7253   0.7913   0.9286   0.9584   0.9836
     1.0843   1.1203   1.1509   1.1883   1.2090   1.2459   1.2707   1.3353
     1.5201   1.5379   1.6379   1.6628   1.6914   1.7058   1.7977   1.9840
     2.0491   2.0752   2.1081   2.3380   2.4096   2.4296   2.4729   2.5758
     2.6809   2.7511   2.8260   2.8531   2.8918   2.9583   3.0739   3.1297
     3.1548   3.1823   3.2036   3.2882   3.3260   3.3907   3.4190   3.4880
     3.5428   3.5841   3.6692   3.7366   3.7740   3.7954   3.8287   3.8914
     3.9588   3.9875   4.0366   4.0973   4.1773   4.1912   4.2435   4.2835
     4.3368   4.3872   4.4248   4.4706

          k = 0.1875-0.1083-0.2308 ( 96046 PWs)   bands (ev):

  -113.4893-113.4840-113.4804-113.2967 -70.9626 -70.9576 -70.9574 -70.9534
   -70.9522 -70.9510 -70.8124 -70.8083 -70.7936 -70.7859 -70.7830 -70.5146
   -25.1437 -22.8643 -20.4165 -18.4177 -18.0255 -17.8885 -17.8780 -17.8698
   -17.0727 -17.0657 -17.0616 -17.0355 -16.7883 -16.6347 -16.6179 -16.6077
   -16.6044 -16.5973 -16.3936 -16.3768 -16.3746 -16.3532 -16.3514 -16.3478
   -16.3451 -16.3438 -16.3369 -16.3314 -16.3309 -16.3146 -16.2553 -16.2333
   -16.2293 -15.5412 -15.5260 -15.4951 -15.4604 -15.2891 -15.1280 -15.1158
   -15.0789 -14.9857 -14.9437 -14.8118 -14.8029 -14.7738 -14.4741 -14.4708
   -14.4553 -14.3804 -14.3533 -13.8967 -12.2859 -12.2473 -11.9758 -11.7312
   -11.6843 -11.6646 -11.3231 -10.5540 -10.4949 -10.0531 -10.0124  -9.9929
    -9.9614  -9.3083  -9.2785  -8.9081  -8.8752  -8.6648  -8.6228  -8.6106
    -8.5137  -8.0594  -8.0192  -7.9788  -7.9477  -7.9301  -7.8700  -7.8303
    -7.6858  -7.6548  -7.6390  -7.4522  -7.4149  -7.3867  -7.3403  -7.2813
    -7.2198  -7.1746  -6.9303  -6.8284  -6.7732  -6.7591  -6.7207  -6.5304
    -6.5142  -6.4971  -6.4394  -6.2109  -5.9356  -5.7712  -5.6980  -5.6913
    -5.5827  -5.4975  -5.4785  -5.4077  -5.3281  -5.2692  -5.2309  -5.1837
    -5.1662  -5.1504  -5.1100  -5.0830  -5.0504  -5.0106  -4.9746  -4.9392
    -4.9212  -4.7725  -4.7455  -4.7316  -4.6604  -4.6148  -4.4831  -4.4639
    -4.4283  -4.3251  -4.3113  -4.2988  -4.1467  -4.0747  -4.0500  -4.0065
    -3.9849  -3.9689  -3.9416  -3.8802  -3.8603  -3.7502  -3.5765  -3.5720
    -3.5630  -3.4133  -3.3921  -3.3748  -3.3576  -3.2950  -3.2641  -3.2535
    -3.2118  -3.1788  -3.1603  -3.1411  -3.1072  -3.0863  -3.0624  -3.0254
    -2.9951  -2.9661  -2.9012  -2.7389  -2.6755  -2.6484  -2.6234  -2.5276
    -2.5065  -2.4461  -2.3599  -2.3028  -0.4284  -0.1510  -0.1251  -0.0464
     0.4848   0.6311   0.6416   0.7501   0.8192   0.8380   0.8661   1.0111
     1.0406   1.0927   1.1746   1.1888   1.2150   1.2489   1.2741   1.3258
     1.5223   1.6110   1.6400   1.6599   1.7040   1.7114   1.8082   1.9959
     2.0145   2.0459   2.0799   2.3615   2.4472   2.4534   2.4860   2.5544
     2.7144   2.7838   2.8290   2.8659   2.9113   2.9598   3.0989   3.1367
     3.1561   3.2045   3.2414   3.2631   3.2963   3.3482   3.4419   3.4789
     3.5269   3.5857   3.6543   3.7048   3.7516   3.7971   3.8207   3.8519
     3.9342   4.0020   4.0619   4.1339   4.1786   4.1897   4.2306   4.2931
     4.3281   4.3617   4.4263   4.4556

          k = 0.3125 0.5413-0.2308 ( 96108 PWs)   bands (ev):

  -113.4893-113.4840-113.4804-113.2967 -70.9626 -70.9576 -70.9574 -70.9534
   -70.9522 -70.9510 -70.8124 -70.8083 -70.7936 -70.7859 -70.7830 -70.5146
   -25.1437 -22.8643 -20.4165 -18.4177 -17.9498 -17.9389 -17.9280 -17.8533
   -17.0632 -17.0605 -17.0558 -17.0494 -16.7881 -16.6471 -16.6324 -16.6272
   -16.6240 -16.4680 -16.4437 -16.4401 -16.3527 -16.3491 -16.3486 -16.3469
   -16.3453 -16.3414 -16.3400 -16.3362 -16.3304 -16.2995 -16.2928 -16.2900
   -16.1661 -15.5146 -15.4606 -15.3200 -15.3137 -15.2947 -15.2797 -15.2403
   -15.0835 -15.0627 -15.0506 -14.8111 -14.6414 -14.6375 -14.5990 -14.5348
   -14.4320 -14.4262 -14.4134 -13.8966 -12.2593 -11.9797 -11.9380 -11.8921
   -11.8753 -11.5695 -11.3234 -10.5429 -10.2474 -10.1977 -10.1862  -9.9798
    -9.8409  -9.3082  -9.2786  -8.8785  -8.7632  -8.7220  -8.7081  -8.5177
    -8.3844  -8.1235  -8.1015  -8.0824  -8.0514  -7.9095  -7.8828  -7.8409
    -7.7215  -7.6449  -7.6370  -7.6109  -7.5551  -7.5477  -7.5277  -7.2934
    -7.1782  -6.9810  -6.9284  -6.8804  -6.8341  -6.8256  -6.8110  -6.3883
    -6.2950  -6.2793  -6.2560  -6.1994  -5.9341  -5.6874  -5.5551  -5.5278
    -5.5068  -5.4830  -5.4719  -5.4169  -5.3676  -5.2925  -5.2486  -5.1800
    -5.1356  -5.1155  -5.1123  -5.0837  -5.0389  -5.0019  -4.9815  -4.9403
    -4.9065  -4.8265  -4.8020  -4.7374  -4.7123  -4.6770  -4.5823  -4.5498
    -4.5233  -4.3062  -4.2632  -4.2363  -4.2156  -4.0143  -3.9961  -3.9663
    -3.9371  -3.8820  -3.8594  -3.8001  -3.7772  -3.6813  -3.6523  -3.6356
    -3.5962  -3.5348  -3.3923  -3.3401  -3.3132  -3.2989  -3.2794  -3.2466
    -3.2245  -3.1901  -3.1550  -3.1396  -3.1153  -3.0866  -3.0606  -3.0006
    -2.9717  -2.9686  -2.8945  -2.8561  -2.8320  -2.8132  -2.6530  -2.6228
    -2.5936  -2.5600  -2.3547  -2.2993  -0.2610  -0.1034  -0.0915  -0.0590
     0.3402   0.6225   0.6395   0.6620   0.6793   0.9829   1.0879   1.1017
     1.1191   1.1581   1.1858   1.1962   1.2264   1.2658   1.3412   1.3712
     1.3954   1.4595   1.6436   1.6740   1.6874   1.7089   1.7218   1.8881
     2.1541   2.3043   2.3284   2.3381   2.3702   2.3983   2.4140   2.5458
     2.6034   2.6635   2.7355   2.7588   2.7778   2.8830   3.1065   3.1497
     3.1916   3.2669   3.3268   3.3585   3.3835   3.4273   3.5053   3.5232
     3.5560   3.5750   3.6366   3.6607   3.6892   3.7565   3.8304   3.9177
     3.9319   3.9818   4.0014   4.0489   4.1263   4.1591   4.2402   4.2754
     4.3674   4.3945   4.4430   4.4957

          k = 0.3125 0.6856-0.2308 ( 96126 PWs)   bands (ev):

  -113.4893-113.4840-113.4804-113.2967 -70.9626 -70.9576 -70.9574 -70.9534
   -70.9522 -70.9510 -70.8124 -70.8083 -70.7936 -70.7859 -70.7830 -70.5146
   -25.1437 -22.8643 -20.4165 -18.4177 -17.9635 -17.9316 -17.9196 -17.8549
   -17.0642 -17.0597 -17.0561 -17.0494 -16.7881 -16.6454 -16.6297 -16.6276
   -16.6226 -16.4921 -16.4426 -16.4191 -16.3534 -16.3501 -16.3487 -16.3462
   -16.3458 -16.3410 -16.3395 -16.3365 -16.3308 -16.3037 -16.2915 -16.2819
   -16.1717 -15.5153 -15.4606 -15.3580 -15.3236 -15.2927 -15.2582 -15.2186
   -15.0976 -15.0690 -15.0237 -14.8096 -14.6714 -14.6463 -14.5649 -14.5292
   -14.4440 -14.4273 -14.4036 -13.8966 -12.2590 -12.0003 -11.9739 -11.8788
   -11.8290 -11.5771 -11.3230 -10.5438 -10.2924 -10.1864 -10.1444  -9.9794
    -9.8521  -9.3082  -9.2787  -8.8793  -8.7851  -8.7192  -8.6860  -8.5180
    -8.4063  -8.1171  -8.0981  -8.0720  -8.0490  -7.9256  -7.8643  -7.8410
    -7.6926  -7.6744  -7.6422  -7.6176  -7.5439  -7.5308  -7.5072  -7.2934
    -7.1779  -6.9686  -6.9412  -6.9231  -6.8322  -6.8163  -6.7759  -6.3934
    -6.3104  -6.2996  -6.2561  -6.2033  -5.9356  -5.6865  -5.5830  -5.5467
    -5.5138  -5.4767  -5.4437  -5.4203  -5.3618  -5.2924  -5.2427  -5.1847
    -5.1375  -5.1231  -5.1113  -5.0840  -5.0473  -4.9990  -4.9774  -4.9474
    -4.9122  -4.8153  -4.8005  -4.7416  -4.7061  -4.6567  -4.5949  -4.5380
    -4.5041  -4.3056  -4.2724  -4.2548  -4.2043  -4.0241  -3.9932  -3.9678
    -3.9340  -3.8894  -3.8681  -3.8069  -3.7822  -3.6849  -3.6411  -3.6273
    -3.5864  -3.5251  -3.3923  -3.3430  -3.3114  -3.3025  -3.2804  -3.2498
    -3.2223  -3.1856  -3.1690  -3.1423  -3.1088  -3.0943  -3.0494  -3.0114
    -2.9820  -2.9604  -2.8822  -2.8446  -2.8237  -2.7993  -2.6648  -2.6282
    -2.5979  -2.5378  -2.3523  -2.3194  -0.2579  -0.1102  -0.0977  -0.0548
     0.3578   0.6290   0.6468   0.6663   0.6797   0.9934   1.0709   1.0961
     1.1230   1.1575   1.1718   1.1814   1.2215   1.3037   1.3235   1.3534
     1.3900   1.4905   1.6380   1.6648   1.6873   1.7072   1.7382   1.9038
     2.1355   2.2599   2.2989   2.3136   2.3872   2.4057   2.4283   2.5342
     2.5916   2.7084   2.7319   2.7554   2.8113   2.8882   3.0968   3.1329
     3.1983   3.2774   3.3031   3.3340   3.4065   3.4413   3.4677   3.5050
     3.5486   3.5676   3.6274   3.6772   3.7191   3.8037   3.8176   3.9147
     3.9430   3.9683   4.0226   4.0704   4.1173   4.1669   4.2253   4.2995
     4.3984   4.4157   4.4255   4.4909

          k = 0.3125-0.3248-0.2308 ( 96096 PWs)   bands (ev):

  -113.4893-113.4840-113.4804-113.2967 -70.9626 -70.9576 -70.9574 -70.9534
   -70.9522 -70.9510 -70.8124 -70.8083 -70.7936 -70.7859 -70.7830 -70.5146
   -25.1437 -22.8643 -20.4165 -18.4177 -17.9873 -17.9243 -17.8943 -17.8620
   -17.0669 -17.0602 -17.0555 -17.0488 -16.7881 -16.6369 -16.6292 -16.6250
   -16.6149 -16.5389 -16.4348 -16.3868 -16.3578 -16.3518 -16.3494 -16.3469
   -16.3448 -16.3419 -16.3388 -16.3353 -16.3314 -16.3093 -16.2871 -16.2560
   -16.1945 -15.5166 -15.4607 -15.4371 -15.3631 -15.2898 -15.2192 -15.1516
   -15.1207 -15.0574 -14.9890 -14.8054 -14.7360 -14.6700 -14.5142 -14.4908
   -14.4677 -14.4317 -14.3851 -13.8966 -12.2594 -12.0993 -11.9759 -11.8551
   -11.7333 -11.6113 -11.3229 -10.5452 -10.3749 -10.1672 -10.0514  -9.9764
    -9.8998  -9.3082  -9.2787  -8.8813  -8.8316  -8.7146  -8.6264  -8.5225
    -8.4789  -8.0953  -8.0688  -8.0480  -8.0259  -7.9833  -7.8681  -7.7572
    -7.7289  -7.6727  -7.6440  -7.5982  -7.5226  -7.4747  -7.4531  -7.2917
    -7.1771  -7.0521  -6.9321  -6.8901  -6.8292  -6.8036  -6.7471  -6.4208
    -6.3715  -6.3330  -6.2960  -6.2059  -5.9357  -5.6977  -5.6362  -5.5862
    -5.5546  -5.4765  -5.4512  -5.3910  -5.3332  -5.2851  -5.2391  -5.1838
    -5.1480  -5.1363  -5.1073  -5.0907  -5.0519  -4.9984  -4.9822  -4.9553
    -4.9251  -4.8075  -4.7654  -4.7487  -4.6945  -4.6256  -4.5693  -4.5038
    -4.4782  -4.3134  -4.3055  -4.2813  -4.1936  -4.0348  -3.9997  -3.9712
    -3.9454  -3.9207  -3.8851  -3.8247  -3.8033  -3.6910  -3.6155  -3.5978
    -3.5562  -3.4852  -3.3923  -3.3456  -3.3197  -3.3042  -3.2873  -3.2464
    -3.2225  -3.1890  -3.1709  -3.1417  -3.1231  -3.0853  -3.0477  -3.0292
    -2.9972  -2.9557  -2.8822  -2.8101  -2.7729  -2.7432  -2.6776  -2.6465
    -2.5706  -2.4857  -2.4221  -2.3118  -0.2297  -0.1722  -0.1226  -0.0294
     0.4427   0.5945   0.6409   0.7201   0.7407   0.9610   1.0100   1.0652
     1.0899   1.1507   1.1557   1.1843   1.2145   1.2560   1.3453   1.3802
     1.4171   1.5292   1.6258   1.6484   1.6787   1.7030   1.7702   1.9632
     2.0896   2.1289   2.2028   2.3092   2.3950   2.4076   2.4528   2.5556
     2.6282   2.7192   2.7444   2.8147   2.8453   2.9373   3.0752   3.0992
     3.1817   3.2307   3.2497   3.3418   3.3701   3.4140   3.4507   3.4758
     3.5444   3.5731   3.6336   3.6918   3.7836   3.8101   3.8740   3.9014
     3.9271   3.9945   4.0449   4.0990   4.1606   4.1781   4.2419   4.2895
     4.3617   4.4039   4.4509   4.5039

          k = 0.3125-0.1804-0.2308 ( 96048 PWs)   bands (ev):

  -113.4893-113.4840-113.4804-113.2967 -70.9626 -70.9576 -70.9574 -70.9534
   -70.9522 -70.9510 -70.8124 -70.8083 -70.7936 -70.7859 -70.7830 -70.5146
   -25.1437 -22.8643 -20.4165 -18.4177 -18.0043 -17.9122 -17.8786 -17.8706
   -17.0695 -17.0613 -17.0579 -17.0444 -16.7882 -16.6317 -16.6241 -16.6220
   -16.6071 -16.5727 -16.4207 -16.3706 -16.3682 -16.3526 -16.3501 -16.3475
   -16.3445 -16.3429 -16.3383 -16.3331 -16.3318 -16.3121 -16.2788 -16.2283
   -16.2236 -15.5125 -15.4951 -15.4604 -15.4119 -15.2895 -15.1715 -15.1514
   -15.0762 -15.0553 -14.9673 -14.7946 -14.7844 -14.7033 -14.4875 -14.4837
   -14.4437 -14.4393 -14.3713 -13.8966 -12.2610 -12.1731 -11.9758 -11.8135
   -11.6750 -11.6549 -11.3231 -10.5470 -10.4308 -10.1309 -10.0006  -9.9727
    -9.9520  -9.3082  -9.2786  -8.8863  -8.8585  -8.7008  -8.5834  -8.5720
    -8.5103  -8.0735  -8.0540  -8.0237  -7.9924  -7.9797  -7.8697  -7.7802
    -7.7204  -7.6703  -7.6476  -7.5241  -7.5009  -7.4342  -7.4089  -7.2892
    -7.1766  -7.1293  -6.9302  -6.8317  -6.7989  -6.7878  -6.7731  -6.4630
    -6.4209  -6.3847  -6.3403  -6.2080  -5.9357  -5.7240  -5.6585  -5.6228
    -5.5800  -5.4906  -5.4604  -5.3839  -5.3291  -5.2741  -5.2369  -5.1877
    -5.1570  -5.1357  -5.1051  -5.0968  -5.0442  -5.0079  -4.9808  -4.9618
    -4.9207  -4.7877  -4.7614  -4.7299  -4.6900  -4.6228  -4.5295  -4.4880
    -4.4523  -4.3291  -4.3121  -4.2908  -4.1847  -4.0462  -4.0284  -3.9712
    -3.9617  -3.9412  -3.9059  -3.8467  -3.8208  -3.7092  -3.5891  -3.5788
    -3.5534  -3.4208  -3.3925  -3.3591  -3.3486  -3.3080  -3.2697  -3.2478
    -3.2130  -3.1929  -3.1677  -3.1517  -3.1166  -3.0941  -3.0576  -3.0171
    -2.9924  -2.9705  -2.9181  -2.7752  -2.7402  -2.6871  -2.6491  -2.6154
    -2.5185  -2.4911  -2.4401  -2.3096  -0.2616  -0.1786  -0.1518  -0.0180
     0.5496   0.5610   0.5972   0.7440   0.8383   0.8690   0.9954   1.0153
     1.0470   1.1419   1.1609   1.1816   1.2032   1.2490   1.3243   1.3400
     1.5211   1.5501   1.5909   1.6487   1.6969   1.7045   1.7811   2.0088
     2.0277   2.0701   2.1440   2.3238   2.3993   2.4258   2.4780   2.5706
     2.6778   2.7022   2.7836   2.8422   2.8944   2.9691   3.0615   3.1020
     3.1565   3.2087   3.2282   3.2893   3.2990   3.4063   3.4581   3.4876
     3.5362   3.6221   3.6613   3.6798   3.7598   3.8124   3.8623   3.9074
     3.9421   4.0074   4.0944   4.1424   4.1712   4.1879   4.2425   4.2593
     4.3236   4.3752   4.4054   4.4440

          k = 0.4375 0.7578-0.2308 ( 96082 PWs)   bands (ev):

  -113.4893-113.4840-113.4804-113.2967 -70.9626 -70.9576 -70.9574 -70.9534
   -70.9522 -70.9510 -70.8124 -70.8083 -70.7936 -70.7859 -70.7830 -70.5146
   -25.1437 -22.8643 -20.4165 -18.4177 -17.9620 -17.9506 -17.8956 -17.8610
   -17.0628 -17.0596 -17.0573 -17.0502 -16.7881 -16.6418 -16.6313 -16.6234
   -16.6223 -16.4871 -16.4823 -16.3856 -16.3554 -16.3517 -16.3485 -16.3468
   -16.3453 -16.3409 -16.3400 -16.3357 -16.3318 -16.3031 -16.3003 -16.2561
   -16.1894 -15.5047 -15.4606 -15.4228 -15.2925 -15.2567 -15.2504 -15.2318
   -15.1443 -15.0393 -15.0114 -14.7995 -14.7308 -14.5843 -14.5760 -14.5181
   -14.4695 -14.4137 -14.4046 -13.8966 -12.2590 -11.9885 -11.9779 -11.9588
   -11.7354 -11.6021 -11.3231 -10.5444 -10.2801 -10.2661 -10.0480  -9.9786
    -9.8850  -9.3082  -9.2787  -8.8800  -8.7881  -8.7603  -8.6152  -8.5184
    -8.4532  -8.1047  -8.0821  -8.0684  -8.0476  -7.9917  -7.8689  -7.7585
    -7.6888  -7.6783  -7.6521  -7.6156  -7.5747  -7.4993  -7.4772  -7.2938
    -7.1774  -6.9388  -6.9312  -6.9206  -6.8994  -6.8242  -6.7419  -6.4027
    -6.3699  -6.2842  -6.2439  -6.2045  -5.9358  -5.6930  -5.6156  -5.5700
    -5.4849  -5.4754  -5.4480  -5.4262  -5.3496  -5.2894  -5.2404  -5.1795
    -5.1465  -5.1301  -5.1088  -5.0706  -5.0496  -5.0072  -4.9900  -4.9641
    -4.9040  -4.8340  -4.7705  -4.7316  -4.7089  -4.6283  -4.5897  -4.5287
    -4.4923  -4.3113  -4.2774  -4.2693  -4.2193  -4.0250  -3.9871  -3.9543
    -3.9456  -3.9038  -3.8662  -3.8071  -3.7748  -3.7074  -3.6571  -3.6153
    -3.5824  -3.5058  -3.3923  -3.3275  -3.3107  -3.2899  -3.2725  -3.2390
    -3.2262  -3.2058  -3.1762  -3.1397  -3.1231  -3.1042  -3.0541  -2.9987
    -2.9815  -2.9430  -2.8885  -2.8409  -2.8016  -2.7664  -2.6724  -2.6190
    -2.5824  -2.5625  -2.4072  -2.3151  -0.2389  -0.1400  -0.0854  -0.0574
     0.4081   0.5738   0.6875   0.6919   0.7081   0.9690   1.0217   1.0943
     1.1038   1.1367   1.1833   1.2077   1.2371   1.2611   1.3433   1.3787
     1.4459   1.5311   1.5795   1.6552   1.6687   1.7052   1.7441   1.9498
     2.1153   2.1606   2.2664   2.3002   2.4033   2.4068   2.4437   2.5323
     2.5667   2.6801   2.7280   2.7960   2.8334   2.9173   3.0765   3.1015
     3.2189   3.2689   3.2932   3.3419   3.3951   3.4597   3.4752   3.4904
     3.4973   3.5454   3.5518   3.6614   3.7802   3.8227   3.8712   3.9208
     3.9766   4.0157   4.0623   4.0844   4.1599   4.1920   4.2147   4.3013
     4.3441   4.3997   4.4317   4.4901

          k = 0.4375-0.2526-0.2308 ( 96066 PWs)   bands (ev):

  -113.4893-113.4840-113.4804-113.2967 -70.9626 -70.9576 -70.9574 -70.9534
   -70.9522 -70.9510 -70.8124 -70.8083 -70.7936 -70.7859 -70.7830 -70.5146
   -25.1437 -22.8643 -20.4165 -18.4177 -17.9762 -17.9422 -17.8790 -17.8711
   -17.0645 -17.0583 -17.0573 -17.0506 -16.7881 -16.6354 -16.6331 -16.6248
   -16.6169 -16.5197 -16.4650 -16.3672 -16.3644 -16.3521 -16.3488 -16.3470
   -16.3449 -16.3414 -16.3395 -16.3348 -16.3325 -16.3071 -16.2967 -16.2245
   -16.2197 -15.4880 -15.4699 -15.4601 -15.3035 -15.2899 -15.2084 -15.1919
   -15.1658 -15.0371 -14.9948 -14.7804 -14.7723 -14.6164 -14.5277 -14.4973
   -14.4903 -14.4199 -14.3940 -13.8966 -12.2591 -12.0530 -11.9764 -11.9235
   -11.6684 -11.6480 -11.3231 -10.5450 -10.3378 -10.2311  -9.9950  -9.9582
    -9.9421  -9.3082  -9.2787  -8.8808  -8.8138  -8.7504  -8.5562  -8.5366
    -8.5032  -8.0871  -8.0654  -8.0542  -8.0430  -8.0265  -7.8693  -7.7256
    -7.7050  -7.6743  -7.6451  -7.6066  -7.5769  -7.4759  -7.4535  -7.2932
    -7.1771  -7.0111  -6.9305  -6.8846  -6.8304  -6.8067  -6.7969  -6.4203
    -6.3890  -6.2972  -6.2574  -6.2051  -5.9358  -5.6948  -5.6362  -5.5931
    -5.5120  -5.4745  -5.4482  -5.4042  -5.3402  -5.2854  -5.2402  -5.1785
    -5.1523  -5.1336  -5.1089  -5.0758  -5.0390  -5.0195  -4.9942  -4.9665
    -4.9086  -4.8277  -4.7603  -4.7287  -4.7022  -4.6155  -4.5761  -4.5129
    -4.4833  -4.3182  -4.2927  -4.2773  -4.2206  -4.0156  -4.0026  -3.9630
    -3.9466  -3.9128  -3.8728  -3.8158  -3.7841  -3.7032  -3.6483  -3.5978
    -3.5780  -3.4926  -3.3924  -3.3267  -3.3121  -3.2856  -3.2735  -3.2361
    -3.2230  -3.2021  -3.1764  -3.1519  -3.1262  -3.1020  -3.0537  -3.0094
    -2.9917  -2.9425  -2.8727  -2.8291  -2.7701  -2.7597  -2.6834  -2.6316
    -2.5493  -2.5040  -2.4901  -2.3135  -0.2014  -0.1809  -0.1162  -0.0342
     0.4920   0.5082   0.6734   0.7205   0.8203   0.8394   1.0489   1.0704
     1.0922   1.1386   1.1751   1.1902   1.2351   1.2607   1.3444   1.4428
     1.4720   1.5049   1.5423   1.6550   1.6920   1.7012   1.7377   2.0258
     2.0438   2.1072   2.2254   2.2891   2.4054   2.4098   2.4507   2.5436
     2.5741   2.6924   2.7273   2.8186   2.8472   2.9621   3.0425   3.0846
     3.2236   3.2577   3.2618   3.3055   3.3777   3.4320   3.4714   3.5030
     3.5096   3.5417   3.5789   3.6501   3.7612   3.8401   3.8697   3.9367
     4.0281   4.0513   4.0935   4.1215   4.1559   4.1860   4.2342   4.2845
     4.3316   4.3843   4.4115   4.4605

          k =-0.0625 0.1083 0.2308 ( 96006 PWs)   bands (ev):

  -113.4893-113.4840-113.4804-113.2967 -70.9626 -70.9576 -70.9574 -70.9534
   -70.9522 -70.9510 -70.8124 -70.8083 -70.7936 -70.7859 -70.7830 -70.5146
   -25.1437 -22.8643 -20.4165 -18.4177 -18.0340 -17.8796 -17.8774 -17.8688
   -17.0737 -17.0681 -17.0637 -17.0311 -16.7883 -16.6394 -16.6302 -16.5988
   -16.5974 -16.5929 -16.3852 -16.3801 -16.3785 -16.3536 -16.3519 -16.3479
   -16.3456 -16.3440 -16.3362 -16.3307 -16.3303 -16.3155 -16.2445 -16.2361
   -16.2301 -15.5553 -15.5430 -15.5245 -15.4605 -15.2890 -15.1102 -15.0939
   -15.0869 -14.9514 -14.9342 -14.8205 -14.8157 -14.8004 -14.4689 -14.4668
   -14.4581 -14.3545 -14.3460 -13.8968 -12.3216 -12.2530 -11.9758 -11.6955
   -11.6919 -11.6700 -11.3231 -10.5628 -10.5144 -10.0312 -10.0148  -9.9963
    -9.9669  -9.3083  -9.2784  -8.9208  -8.8780  -8.6512  -8.6439  -8.6251
    -8.5145  -8.0585  -7.9889  -7.9563  -7.9405  -7.9053  -7.8662  -7.8496
    -7.6521  -7.6429  -7.6353  -7.4243  -7.3760  -7.3649  -7.3020  -7.2739
    -7.2546  -7.1736  -6.9305  -6.8280  -6.7522  -6.7274  -6.7156  -6.5920
    -6.5650  -6.5540  -6.4864  -6.2124  -5.9355  -5.7949  -5.7208  -5.7162
    -5.5858  -5.4960  -5.4856  -5.4258  -5.3284  -5.2684  -5.2319  -5.1796
    -5.1697  -5.1553  -5.1075  -5.0813  -5.0580  -5.0097  -4.9686  -4.9288
    -4.9211  -4.7596  -4.7465  -4.7362  -4.6359  -4.6075  -4.4663  -4.4479
    -4.4347  -4.3150  -4.3085  -4.2872  -4.1197  -4.0798  -4.0598  -4.0312
    -4.0066  -3.9842  -3.9616  -3.8943  -3.8798  -3.7771  -3.5833  -3.5774
    -3.5704  -3.4303  -3.3925  -3.3811  -3.3794  -3.2809  -3.2639  -3.2469
    -3.2221  -3.1677  -3.1580  -3.1452  -3.0956  -3.0815  -3.0659  -3.0245
    -3.0051  -2.9055  -2.8783  -2.7215  -2.6645  -2.6394  -2.5884  -2.5224
    -2.5057  -2.3727  -2.3239  -2.2923  -0.5191  -0.1432  -0.1126  -0.0662
     0.4250   0.6589   0.7054   0.7328   0.7753   0.7973   0.8205   1.0193
     1.0474   1.0594   1.1926   1.1982   1.2336   1.2533   1.2712   1.3251
     1.5154   1.6359   1.6475   1.6751   1.7070   1.7288   1.8157   1.9993
     2.0169   2.0417   2.0520   2.3837   2.4442   2.4821   2.5196   2.5404
     2.7184   2.7894   2.8213   2.8585   2.9144   2.9867   3.1035   3.1616
     3.1808   3.2279   3.2540   3.2748   3.3112   3.3470   3.4239   3.4601
     3.5146   3.5736   3.6286   3.6862   3.6933   3.7429   3.8086   3.8363
     3.9351   4.0011   4.0810   4.1116   4.1699   4.2063   4.2567   4.3310
     4.3461   4.3809   4.4089   4.4521

          k = 0.1250 0.0000-0.2308 ( 96006 PWs)   bands (ev):

  -113.4893-113.4840-113.4804-113.2967 -70.9626 -70.9576 -70.9574 -70.9534
   -70.9522 -70.9510 -70.8124 -70.8083 -70.7936 -70.7859 -70.7830 -70.5146
   -25.1437 -22.8643 -20.4165 -18.4177 -18.0340 -17.8803 -17.8763 -17.8692
   -17.0737 -17.0682 -17.0635 -17.0311 -16.7883 -16.6378 -16.6318 -16.6007
   -16.5955 -16.5931 -16.3856 -16.3822 -16.3758 -16.3535 -16.3518 -16.3478
   -16.3460 -16.3440 -16.3362 -16.3310 -16.3300 -16.3155 -16.2418 -16.2385
   -16.2303 -15.5537 -15.5457 -15.5238 -15.4605 -15.2891 -15.1074 -15.0959
   -15.0874 -14.9499 -14.9357 -14.8233 -14.8111 -14.8021 -14.4703 -14.4634
   -14.4601 -14.3555 -14.3449 -13.8968 -12.3219 -12.2529 -11.9758 -11.6972
   -11.6920 -11.6679 -11.3233 -10.5627 -10.5144 -10.0216 -10.0169 -10.0090
    -9.9617  -9.3083  -9.2784  -8.9210  -8.8778  -8.6520  -8.6418  -8.6259
    -8.5148  -8.0582  -7.9920  -7.9571  -7.9372  -7.8998  -7.8828  -7.8386
    -7.6598  -7.6464  -7.6241  -7.4229  -7.3753  -7.3670  -7.2989  -7.2773
    -7.2541  -7.1736  -6.9306  -6.8284  -6.7542  -6.7283  -6.7127  -6.5882
    -6.5673  -6.5538  -6.4872  -6.2120  -5.9355  -5.7949  -5.7201  -5.7182
    -5.5835  -5.4962  -5.4886  -5.4255  -5.3306  -5.2686  -5.2306  -5.1752
    -5.1733  -5.1532  -5.1076  -5.0748  -5.0612  -5.0142  -4.9704  -4.9298
[...]
     3.9659   4.0121   4.0722   4.1429   4.1583   4.2087   4.2307   4.2576
     4.3149   4.3546   4.4280   4.4770

          k =-0.1250 0.4330 0.2308 ( 96096 PWs)   bands (ev):

  -113.4893-113.4840-113.4804-113.2967 -70.9626 -70.9576 -70.9574 -70.9534
   -70.9522 -70.9510 -70.8124 -70.8083 -70.7936 -70.7859 -70.7830 -70.5146
   -25.1437 -22.8643 -20.4165 -18.4177 -17.9873 -17.9253 -17.8932 -17.8619
   -17.0663 -17.0610 -17.0559 -17.0482 -16.7881 -16.6376 -16.6293 -16.6227
   -16.6177 -16.5379 -16.4361 -16.3857 -16.3584 -16.3511 -16.3499 -16.3476
   -16.3448 -16.3419 -16.3386 -16.3347 -16.3311 -16.3094 -16.2878 -16.2546
   -16.1945 -15.5141 -15.4608 -15.4417 -15.3603 -15.2898 -15.2229 -15.1382
   -15.1237 -15.0631 -14.9906 -14.8039 -14.7466 -14.6623 -14.5149 -14.4942
   -14.4647 -14.4324 -14.3822 -13.8967 -12.2595 -12.0988 -11.9758 -11.8543
   -11.7337 -11.6120 -11.3227 -10.5443 -10.3770 -10.1752 -10.0411  -9.9781
    -9.9000  -9.3082  -9.2788  -8.8801  -8.8331  -8.7202  -8.6170  -8.5218
    -8.4815  -8.1001  -8.0743  -8.0486  -8.0256  -7.9514  -7.8709  -7.7861
    -7.7341  -7.6694  -7.6271  -7.5944  -7.5335  -7.4775  -7.4532  -7.2900
    -7.1773  -7.0506  -6.9317  -6.8914  -6.8263  -6.8079  -6.7397  -6.4235
    -6.3987  -6.3215  -6.2830  -6.2044  -5.9355  -5.7036  -5.6092  -5.5802
    -5.5653  -5.4919  -5.4480  -5.3962  -5.3301  -5.2834  -5.2430  -5.1949
    -5.1416  -5.1320  -5.1191  -5.0844  -5.0362  -5.0132  -4.9786  -4.9600
    -4.9115  -4.8152  -4.7689  -4.7323  -4.6878  -4.6463  -4.5558  -4.5217
    -4.4802  -4.3146  -4.2919  -4.2873  -4.1987  -4.0411  -4.0071  -3.9712
    -3.9374  -3.9037  -3.8894  -3.8336  -3.7976  -3.6849  -3.6173  -3.5837
    -3.5714  -3.4754  -3.3921  -3.3398  -3.3285  -3.2992  -3.2739  -3.2426
    -3.2237  -3.1958  -3.1759  -3.1527  -3.1218  -3.0885  -3.0450  -3.0254
    -3.0026  -2.9529  -2.8967  -2.8137  -2.7896  -2.7351  -2.6725  -2.6227
    -2.5832  -2.4957  -2.4132  -2.3070  -0.2314  -0.1741  -0.1078  -0.0383
     0.4371   0.6086   0.6401   0.7011   0.7263   0.9744   0.9970   1.0766
     1.1078   1.1426   1.1903   1.1988   1.2173   1.2365   1.3202   1.3521
     1.4265   1.5662   1.5914   1.6518   1.6974   1.7110   1.7403   1.9733
     2.0886   2.1380   2.1870   2.3031   2.3729   2.4090   2.4715   2.5752
     2.6209   2.7157   2.7660   2.8358   2.8568   2.9197   3.0501   3.1517
     3.1940   3.2135   3.2409   3.3015   3.3310   3.3815   3.4154   3.4874
     3.5504   3.5872   3.6682   3.6859   3.7557   3.8164   3.8505   3.9157
     3.9350   3.9939   4.0964   4.1365   4.1732   4.2117   4.2432   4.2730
     4.3498   4.3888   4.4292   4.4763

          k =-0.3125-0.1804 0.2308 ( 96048 PWs)   bands (ev):

  -113.4893-113.4840-113.4804-113.2967 -70.9626 -70.9576 -70.9574 -70.9534
   -70.9522 -70.9510 -70.8124 -70.8083 -70.7936 -70.7859 -70.7830 -70.5146
   -25.1437 -22.8643 -20.4165 -18.4177 -18.0042 -17.9134 -17.8761 -17.8719
   -17.0673 -17.0634 -17.0586 -17.0434 -16.7883 -16.6355 -16.6254 -16.6184
   -16.6089 -16.5706 -16.4226 -16.3696 -16.3675 -16.3510 -16.3507 -16.3469
   -16.3459 -16.3431 -16.3383 -16.3335 -16.3306 -16.3123 -16.2783 -16.2294
   -16.2215 -15.5086 -15.5010 -15.4607 -15.4118 -15.2905 -15.1668 -15.1497
   -15.0700 -15.0590 -14.9737 -14.7993 -14.7847 -14.7020 -14.4887 -14.4810
   -14.4449 -14.4383 -14.3689 -13.8967 -12.2625 -12.1718 -11.9759 -11.8143
   -11.6665 -11.6616 -11.3240 -10.5451 -10.4335 -10.1365  -9.9991  -9.9715
    -9.9491  -9.3084  -9.2783  -8.8825  -8.8631  -8.7023  -8.5749  -8.5686
    -8.5146  -8.0739  -8.0607  -8.0129  -7.9966  -7.9880  -7.8726  -7.7746
    -7.7256  -7.6682  -7.6424  -7.5220  -7.5017  -7.4373  -7.4106  -7.2873
    -7.1766  -7.1276  -6.9301  -6.8347  -6.8013  -6.7907  -6.7715  -6.4560
    -6.4274  -6.3747  -6.3407  -6.2053  -5.9333  -5.7313  -5.6592  -5.6261
    -5.5616  -5.5029  -5.4747  -5.3866  -5.3226  -5.2696  -5.2441  -5.1830
    -5.1506  -5.1266  -5.1115  -5.0830  -5.0509  -5.0130  -4.9844  -4.9626
    -4.9156  -4.7970  -4.7602  -4.7239  -4.6958  -4.6254  -4.5221  -4.4944
    -4.4589  -4.3320  -4.3194  -4.2851  -4.1823  -4.0533  -4.0162  -3.9847
    -3.9564  -3.9362  -3.9028  -3.8416  -3.8252  -3.7090  -3.5951  -3.5751
    -3.5530  -3.4174  -3.3925  -3.3575  -3.3491  -3.3032  -3.2684  -3.2358
    -3.2173  -3.2012  -3.1690  -3.1464  -3.1246  -3.0981  -3.0482  -3.0130
    -2.9976  -2.9712  -2.9200  -2.7696  -2.7481  -2.6893  -2.6402  -2.6165
    -2.5393  -2.4939  -2.4401  -2.2850  -0.2649  -0.1710  -0.1477  -0.0286
     0.5490   0.5691   0.6006   0.7362   0.8311   0.8668   0.9911   1.0241
     1.0379   1.1354   1.1573   1.1806   1.2243   1.2407   1.3187   1.3426
     1.5320   1.5481   1.5808   1.6537   1.6803   1.7201   1.7727   2.0081
     2.0370   2.0783   2.1288   2.3126   2.4012   2.4453   2.4739   2.6179
     2.6591   2.6945   2.7798   2.8190   2.9047   2.9659   3.0771   3.1087
     3.1572   3.2059   3.2384   3.2788   3.3022   3.3555   3.4388   3.5031
     3.5654   3.6224   3.6660   3.7177   3.7370   3.7763   3.8367   3.8841
     3.9393   4.0015   4.0827   4.1366   4.1634   4.2051   4.2500   4.2794
     4.3135   4.4004   4.4125   4.4385

          k = 0.0000-0.3608-0.2308 ( 96048 PWs)   bands (ev):

  -113.4893-113.4840-113.4804-113.2967 -70.9626 -70.9576 -70.9574 -70.9534
   -70.9522 -70.9510 -70.8124 -70.8083 -70.7936 -70.7859 -70.7830 -70.5146
   -25.1437 -22.8643 -20.4165 -18.4177 -18.0044 -17.9133 -17.8767 -17.8712
   -17.0673 -17.0639 -17.0590 -17.0430 -16.7882 -16.6371 -16.6224 -16.6178
   -16.6102 -16.5702 -16.4218 -16.3717 -16.3672 -16.3525 -16.3502 -16.3481
   -16.3445 -16.3424 -16.3383 -16.3327 -16.3314 -16.3122 -16.2797 -16.2264
   -16.2235 -15.5118 -15.4960 -15.4604 -15.4111 -15.2901 -15.1725 -15.1468
   -15.0759 -15.0556 -14.9710 -14.7963 -14.7873 -14.7025 -14.4888 -14.4830
   -14.4446 -14.4357 -14.3697 -13.8967 -12.2612 -12.1723 -11.9758 -11.8130
   -11.6680 -11.6627 -11.3229 -10.5456 -10.4337 -10.1396  -9.9841  -9.9704
    -9.9616  -9.3082  -9.2786  -8.8812  -8.8649  -8.7037  -8.5771  -8.5688
    -8.5129  -8.0768  -8.0410  -8.0292  -7.9920  -7.9841  -7.8668  -7.7820
    -7.7110  -7.6785  -7.6501  -7.5249  -7.5023  -7.4384  -7.4106  -7.2871
    -7.1766  -7.1261  -6.9299  -6.8266  -6.8024  -6.7935  -6.7730  -6.4656
    -6.4197  -6.3803  -6.3387  -6.2084  -5.9348  -5.7262  -5.6475  -5.6208
    -5.5819  -5.4972  -5.4640  -5.3877  -5.3180  -5.2710  -5.2414  -5.1948
    -5.1507  -5.1374  -5.1204  -5.0882  -5.0464  -5.0028  -4.9723  -4.9597
    -4.9262  -4.7867  -4.7585  -4.7301  -4.6785  -4.6436  -4.5226  -4.4837
    -4.4692  -4.3246  -4.3190  -4.2947  -4.1835  -4.0460  -4.0190  -3.9764
    -3.9625  -3.9358  -3.9054  -3.8494  -3.8208  -3.6996  -3.5858  -3.5752
    -3.5576  -3.4145  -3.3920  -3.3616  -3.3448  -3.3113  -3.2653  -3.2436
    -3.2215  -3.1944  -3.1616  -3.1464  -3.1171  -3.0964  -3.0553  -3.0169
    -3.0002  -2.9718  -2.9321  -2.7751  -2.7492  -2.6834  -2.6403  -2.6261
    -2.5329  -2.4919  -2.4277  -2.2967  -0.2647  -0.1801  -0.1408  -0.0228
     0.5385   0.5739   0.5943   0.7365   0.8361   0.8610   1.0046   1.0284
     1.0458   1.1286   1.1642   1.1811   1.2089   1.2514   1.3196   1.3509
     1.5240   1.5400   1.5758   1.6502   1.6956   1.7112   1.7775   2.0141
     2.0387   2.0854   2.1269   2.3123   2.3832   2.4345   2.4758   2.5976
     2.6539   2.7375   2.8114   2.8360   2.8892   2.9566   3.0650   3.1087
     3.1703   3.1950   3.2247   3.2721   3.3049   3.3386   3.4238   3.4772
     3.5238   3.5942   3.7010   3.7259   3.7610   3.8002   3.8580   3.8876
     3.9273   4.0560   4.0944   4.1594   4.1812   4.2005   4.2364   4.2698
     4.3039   4.3576   4.4325   4.4902

          k =-0.4375 0.7578 0.2308 ( 96082 PWs)   bands (ev):

  -113.4893-113.4840-113.4804-113.2967 -70.9626 -70.9576 -70.9574 -70.9534
   -70.9522 -70.9510 -70.8124 -70.8083 -70.7936 -70.7859 -70.7830 -70.5146
   -25.1437 -22.8643 -20.4165 -18.4177 -17.9583 -17.9553 -17.8946 -17.8610
   -17.0628 -17.0591 -17.0568 -17.0511 -16.7882 -16.6416 -16.6303 -16.6281
   -16.6213 -16.4897 -16.4796 -16.3849 -16.3557 -16.3501 -16.3484 -16.3465
   -16.3455 -16.3425 -16.3399 -16.3354 -16.3307 -16.3043 -16.2990 -16.2560
   -16.1885 -15.5049 -15.4607 -15.4241 -15.3043 -15.2617 -15.2435 -15.2171
   -15.1378 -15.0359 -15.0252 -14.8023 -14.7339 -14.5847 -14.5738 -14.5180
   -14.4686 -14.4156 -14.3996 -13.8966 -12.2600 -11.9893 -11.9760 -11.9591
   -11.7343 -11.6019 -11.3242 -10.5427 -10.2815 -10.2725 -10.0447  -9.9788
    -9.8831  -9.3084  -9.2784  -8.8789  -8.7898  -8.7625  -8.6074  -8.5179
    -8.4503  -8.1109  -8.0839  -8.0661  -8.0510  -7.9963  -7.8704  -7.7530
    -7.6855  -7.6730  -7.6543  -7.6174  -7.5768  -7.5004  -7.4787  -7.2918
    -7.1777  -6.9360  -6.9298  -6.9187  -6.9058  -6.8239  -6.7467  -6.3977
    -6.3684  -6.2835  -6.2491  -6.1931  -5.9317  -5.7006  -5.6131  -5.5593
    -5.5111  -5.4739  -5.4536  -5.4316  -5.3319  -5.2929  -5.2500  -5.1704
    -5.1409  -5.1172  -5.1006  -5.0797  -5.0377  -5.0159  -4.9961  -4.9647
    -4.9025  -4.8509  -4.7726  -4.7289  -4.7075  -4.6327  -4.5693  -4.5369
    -4.5079  -4.3180  -4.2739  -4.2656  -4.2199  -4.0209  -3.9825  -3.9706
    -3.9385  -3.9031  -3.8603  -3.8064  -3.7755  -3.7065  -3.6605  -3.6201
    -3.5774  -3.5014  -3.3924  -3.3228  -3.3063  -3.2933  -3.2668  -3.2403
    -3.2280  -3.2119  -3.1672  -3.1430  -3.1233  -3.1105  -3.0427  -3.0016
    -2.9786  -2.9450  -2.8945  -2.8454  -2.8124  -2.7596  -2.6603  -2.6248
    -2.5838  -2.5709  -2.4210  -2.2842  -0.2343  -0.1351  -0.0944  -0.0590
     0.4113   0.5789   0.6733   0.6959   0.7111   0.9642   0.9988   1.0890
     1.1173   1.1554   1.1807   1.2012   1.2292   1.2636   1.3262   1.3810
     1.4494   1.5424   1.5857   1.6445   1.6694   1.7039   1.7410   1.9525
     2.1332   2.1611   2.2395   2.2909   2.4041   2.4217   2.4409   2.5596
     2.6193   2.6514   2.7356   2.7752   2.8109   2.9049   3.0859   3.1540
     3.1811   3.2629   3.2852   3.3200   3.3917   3.4219   3.4906   3.5045
     3.5256   3.5689   3.5839   3.6691   3.7252   3.8019   3.8801   3.9202
     3.9375   3.9716   4.0430   4.0718   4.1316   4.2097   4.2529   4.3049
     4.3550   4.3960   4.4089   4.4840

          k = 0.8750 0.0000-0.2308 ( 96082 PWs)   bands (ev):

  -113.4893-113.4840-113.4804-113.2967 -70.9626 -70.9576 -70.9574 -70.9534
   -70.9522 -70.9510 -70.8124 -70.8083 -70.7936 -70.7859 -70.7830 -70.5146
   -25.1437 -22.8643 -20.4165 -18.4177 -17.9610 -17.9527 -17.8947 -17.8608
   -17.0643 -17.0582 -17.0565 -17.0512 -16.7881 -16.6407 -16.6302 -16.6255
   -16.6239 -16.4858 -16.4829 -16.3861 -16.3558 -16.3506 -16.3490 -16.3478
   -16.3454 -16.3413 -16.3389 -16.3352 -16.3313 -16.3025 -16.3014 -16.2554
   -16.1886 -15.5043 -15.4607 -15.4221 -15.3000 -15.2540 -15.2484 -15.2253
   -15.1439 -15.0377 -15.0182 -14.8014 -14.7339 -14.5845 -14.5763 -14.5178
   -14.4688 -14.4098 -14.4043 -13.8967 -12.2592 -11.9881 -11.9733 -11.9623
   -11.7354 -11.6031 -11.3229 -10.5432 -10.2789 -10.2772 -10.0404  -9.9791
    -9.8847  -9.3082  -9.2787  -8.8789  -8.7881  -8.7664  -8.6081  -8.5183
    -8.4513  -8.1106  -8.0806  -8.0628  -8.0455  -7.9928  -7.8717  -7.7511
    -7.6874  -7.6770  -7.6576  -7.6139  -7.5851  -7.5014  -7.4796  -7.2915
    -7.1778  -6.9393  -6.9290  -6.9147  -6.9019  -6.8240  -6.7478  -6.4009
    -6.3702  -6.2811  -6.2519  -6.1984  -5.9354  -5.6879  -5.6063  -5.5567
    -5.4999  -5.4828  -5.4501  -5.4358  -5.3411  -5.2835  -5.2478  -5.1818
    -5.1382  -5.1333  -5.1194  -5.0711  -5.0435  -5.0092  -4.9755  -4.9620
    -4.9019  -4.8491  -4.7669  -4.7215  -4.7117  -4.6363  -4.5700  -4.5494
    -4.5042  -4.3118  -4.2789  -4.2703  -4.2173  -4.0227  -3.9765  -3.9713
    -3.9373  -3.9033  -3.8660  -3.8118  -3.7719  -3.6985  -3.6495  -3.6167
    -3.5733  -3.5075  -3.3921  -3.3238  -3.3150  -3.2912  -3.2686  -3.2485
    -3.2266  -3.1987  -3.1674  -3.1395  -3.1266  -3.1054  -3.0530  -2.9970
    -2.9824  -2.9466  -2.9020  -2.8492  -2.8159  -2.7658  -2.6659  -2.6340
    -2.5816  -2.5429  -2.4098  -2.3044  -0.2360  -0.1335  -0.0869  -0.0617
     0.4057   0.5719   0.6707   0.7022   0.7066   0.9607   1.0189   1.0930
     1.1271   1.1411   1.1795   1.2021   1.2315   1.2687   1.3473   1.3660
     1.4567   1.5328   1.5717   1.6531   1.6786   1.7028   1.7334   1.9562
     2.1282   2.1763   2.2332   2.3054   2.3767   2.4038   2.4285   2.5622
     2.5973   2.7137   2.7356   2.7966   2.8459   2.8819   3.0557   3.1621
     3.1915   3.2353   3.2953   3.3105   3.3573   3.3794   3.4821   3.5000
     3.5172   3.5368   3.5698   3.6940   3.7713   3.8174   3.8776   3.9229
     3.9436   4.0155   4.0736   4.0967   4.1680   4.2205   4.2481   4.3081
     4.3680   4.3958   4.4066   4.4539

          k =-0.4375-0.2526 0.2308 ( 96066 PWs)   bands (ev):

  -113.4893-113.4840-113.4804-113.2967 -70.9626 -70.9576 -70.9574 -70.9534
   -70.9522 -70.9510 -70.8124 -70.8083 -70.7936 -70.7859 -70.7830 -70.5146
   -25.1437 -22.8643 -20.4165 -18.4177 -17.9757 -17.9437 -17.8767 -17.8723
   -17.0630 -17.0599 -17.0570 -17.0507 -16.7883 -16.6365 -16.6307 -16.6284
   -16.6179 -16.5191 -16.4652 -16.3667 -16.3641 -16.3505 -16.3489 -16.3465
   -16.3456 -16.3428 -16.3395 -16.3348 -16.3309 -16.3076 -16.2961 -16.2253
   -16.2175 -15.4831 -15.4767 -15.4604 -15.3155 -15.2831 -15.2063 -15.1875
   -15.1544 -15.0387 -15.0047 -14.7862 -14.7727 -14.6159 -14.5268 -14.4959
   -14.4912 -14.4194 -14.3902 -13.8966 -12.2604 -12.0523 -11.9765 -11.9232
   -11.6601 -11.6547 -11.3243 -10.5429 -10.3413 -10.2362  -9.9933  -9.9580
    -9.9387  -9.3084  -9.2783  -8.8792  -8.8160  -8.7523  -8.5427  -8.5304
    -8.5111  -8.0884  -8.0800  -8.0535  -8.0411  -8.0269  -7.8718  -7.7195
    -7.7032  -7.6699  -7.6446  -7.6073  -7.5813  -7.4771  -7.4552  -7.2906
    -7.1774  -7.0090  -6.9305  -6.8816  -6.8352  -6.8107  -6.7992  -6.4124
    -6.3898  -6.2943  -6.2616  -6.1947  -5.9314  -5.7028  -5.6391  -5.5795
    -5.5238  -5.4784  -5.4658  -5.4061  -5.3227  -5.2885  -5.2508  -5.1708
    -5.1434  -5.1209  -5.0988  -5.0749  -5.0439  -5.0139  -5.0070  -4.9712
    -4.9069  -4.8432  -4.7650  -4.7229  -4.7023  -4.6172  -4.5622  -4.5235
    -4.4940  -4.3256  -4.2891  -4.2745  -4.2193  -4.0127  -3.9973  -3.9788
    -3.9420  -3.9082  -3.8692  -3.8143  -3.7856  -3.7031  -3.6520  -3.6004
    -3.5741  -3.4866  -3.3924  -3.3194  -3.3111  -3.2892  -3.2638  -3.2361
    -3.2206  -3.2054  -3.1842  -3.1558  -3.1281  -3.1041  -3.0337  -3.0067
    -2.9976  -2.9463  -2.8790  -2.8339  -2.7802  -2.7562  -2.6705  -2.6341
    -2.5601  -2.5163  -2.4894  -2.2833  -0.1933  -0.1790  -0.1216  -0.0403
     0.4916   0.5178   0.6685   0.7159   0.8170   0.8416   1.0211   1.0615
     1.1077   1.1459   1.1742   1.2051   1.2167   1.2611   1.3307   1.4471
     1.4826   1.5008   1.5447   1.6565   1.6864   1.7059   1.7314   2.0313
     2.0472   2.1223   2.2001   2.2760   2.3988   2.4320   2.4516   2.5787
     2.6164   2.6642   2.7395   2.7860   2.8367   2.9215   3.0724   3.1458
     3.1914   3.2328   3.2629   3.2997   3.3611   3.4093   3.4618   3.5115
     3.5366   3.5727   3.6022   3.6758   3.7487   3.8007   3.8322   3.9180
     3.9734   4.0110   4.0682   4.1146   4.1580   4.2018   4.2394   4.3104
     4.3509   4.3800   4.4186   4.4585

          k = 0.0000-0.5052-0.2308 ( 96066 PWs)   bands (ev):

  -113.4893-113.4840-113.4804-113.2967 -70.9626 -70.9576 -70.9574 -70.9534
   -70.9522 -70.9510 -70.8124 -70.8083 -70.7936 -70.7859 -70.7830 -70.5146
   -25.1437 -22.8643 -20.4165 -18.4177 -17.9762 -17.9433 -17.8771 -17.8718
   -17.0642 -17.0598 -17.0568 -17.0503 -16.7881 -16.6357 -16.6308 -16.6258
   -16.6201 -16.5185 -16.4653 -16.3678 -16.3646 -16.3514 -16.3492 -16.3481
   -16.3451 -16.3415 -16.3388 -16.3339 -16.3320 -16.3072 -16.2972 -16.2228
   -16.2195 -15.4864 -15.4713 -15.4595 -15.3108 -15.2839 -15.2072 -15.1878
   -15.1647 -15.0376 -15.0004 -14.7811 -14.7769 -14.6166 -14.5288 -14.4974
   -14.4890 -14.4164 -14.3921 -13.8967 -12.2594 -12.0518 -11.9762 -11.9232
   -11.6618 -11.6557 -11.3228 -10.5435 -10.3418 -10.2379  -9.9822  -9.9548
    -9.9503  -9.3082  -9.2788  -8.8792  -8.8162  -8.7546  -8.5420  -8.5364
    -8.5082  -8.0925  -8.0627  -8.0515  -8.0404  -8.0277  -7.8687  -7.7221
    -7.6980  -7.6745  -7.6512  -7.6044  -7.5911  -7.4787  -7.4557  -7.2904
    -7.1775  -7.0078  -6.9300  -6.8795  -6.8261  -6.8125  -6.8052  -6.4187
    -6.3893  -6.2938  -6.2622  -6.2011  -5.9354  -5.6920  -5.6227  -5.5787
    -5.5260  -5.4867  -5.4505  -5.4148  -5.3283  -5.2794  -5.2470  -5.1841
    -5.1429  -5.1368  -5.1231  -5.0663  -5.0409  -5.0163  -4.9828  -4.9663
    -4.9065  -4.8394  -4.7564  -4.7184  -4.7032  -4.6262  -4.5601  -4.5323
    -4.4961  -4.3167  -4.2950  -4.2808  -4.2171  -4.0091  -4.0000  -3.9697
    -3.9450  -3.9113  -3.8727  -3.8202  -3.7809  -3.6921  -3.6425  -3.5982
    -3.5693  -3.4911  -3.3920  -3.3252  -3.3124  -3.2927  -3.2616  -3.2508
    -3.2256  -3.1921  -3.1683  -3.1541  -3.1280  -3.1050  -3.0448  -3.0093
    -2.9972  -2.9441  -2.8933  -2.8375  -2.7822  -2.7640  -2.6773  -2.6356
    -2.5471  -2.5006  -2.4813  -2.3034  -0.2016  -0.1715  -0.1170  -0.0387
     0.4815   0.5150   0.6657   0.7195   0.8145   0.8360   1.0434   1.0737
     1.1181   1.1328   1.1671   1.1956   1.2306   1.2632   1.3472   1.4491
     1.4722   1.4957   1.5484   1.6483   1.6889   1.7029   1.7317   2.0285
     2.0563   2.1325   2.1948   2.2875   2.3689   2.4107   2.4443   2.5687
     2.6078   2.7301   2.7407   2.8242   2.8549   2.9115   3.0284   3.1474
     3.1917   3.2301   3.2662   3.3039   3.3167   3.3756   3.4259   3.4971
     3.5244   3.5373   3.5859   3.7155   3.7753   3.8312   3.8418   3.9300
     3.9894   4.0786   4.1045   4.1503   4.1788   4.2226   4.2567   4.3020
     4.3232   4.3682   4.3997   4.4210

     the Fermi energy is    -1.6431 ev
     (compare with:    -1.6668 eV, computed in scf)

     Writing all to output data dir ./test.save/ :
     XML data file, pseudopotentials, collected wavefunctions
 
     init_run     :      1.19s CPU      3.66s WALL (       1 calls)
     electrons    :  28876.04s CPU  29209.57s WALL (       1 calls)

     Called by init_run:
     wfcinit      :      0.00s CPU      2.27s WALL (       1 calls)
     potinit      :      0.06s CPU      0.13s WALL (       1 calls)
     hinit0       :      0.06s CPU      0.07s WALL (       1 calls)

     Called by electrons:
     c_bands      :  28876.03s CPU  29209.55s WALL (       1 calls)
     v_of_rho     :      0.04s CPU      0.05s WALL (       1 calls)
     newd         :      0.35s CPU      0.44s WALL (       1 calls)

     Called by c_bands:
     init_us_2    :      1.07s CPU      1.09s WALL (      96 calls)
     ccgdiagg     :  28696.43s CPU  28850.08s WALL (     576 calls)
     wfcrot       :    175.10s CPU    176.74s WALL (     576 calls)

     Called by *cgdiagg:
     h_psi        :  11559.88s CPU  11627.26s WALL ( 1862519 calls)
     s_psi        :   9308.09s CPU   9357.54s WALL ( 3724462 calls)

     Called by h_psi:
     h_psi:calbec :   5366.36s CPU   5397.32s WALL ( 1862519 calls)
     vloc_psi     :   1432.12s CPU   1444.69s WALL ( 1862519 calls)
     add_vuspsi   :   4737.67s CPU   4763.14s WALL ( 1862519 calls)
     hs_1psi      :  16096.98s CPU  16185.71s WALL ( 1861943 calls)
     s_1psi       :   9611.17s CPU   9658.09s WALL ( 1861943 calls)

     General routines
     calbec       :  10304.55s CPU  10362.63s WALL ( 3724462 calls)
     fft          :      0.02s CPU      0.03s WALL (      13 calls)
     ffts         :      0.00s CPU      0.00s WALL (       1 calls)
     fftw         :    858.10s CPU    865.75s WALL ( 4026286 calls)
     interpolate  :      0.00s CPU      0.01s WALL (       1 calls)
     davcio       :      0.03s CPU    178.02s WALL (     192 calls)
 
     Parallel routines
 
     PWSCF        :  28897.22s CPU  29276.83s WALL

 
   This run was terminated on:  21:46:46  12Feb2026            

=------------------------------------------------------------------------------=
   JOB DONE.
=------------------------------------------------------------------------------=
