
     Program PWSCF v.7.3.1 starts on 12Feb2026 at 13: 6: 0 

     This program is part of the open-source Quantum ESPRESSO suite
     for quantum simulation of materials; please cite
         "P. Giannozzi et al., J. Phys.:Condens. Matter 21 395502 (2009);
         "P. Giannozzi et al., J. Phys.:Condens. Matter 29 465901 (2017);
         "P. Giannozzi et al., J. Chem. Phys. 152 154105 (2020);
          URL http://www.quantum-espresso.org", 
     in publications or presentations arising from this work. More details at
     http://www.quantum-espresso.org/quote

     Parallel version (MPI & OpenMP), running on      64 processor cores
     Number of MPI processes:                64
     Threads/MPI process:                     1

     MPI processes distributed on     1 nodes
     505690 MiB available memory on the printing compute node when the environment starts
 
     Waiting for input...
     Reading input from standard input
Warning: card &CELL ignored
Warning: card   PRESS = 0.0, ignored
Warning: card / ignored

     Current dimensions of program PWSCF are:
     Max number of different atomic species (ntypx) = 10
     Max number of k-points (npk) =  40000
     Max angular momentum in pseudopotentials (lmaxx) =  4

     IMPORTANT: XC functional enforced from input :
     Exchange-correlation= PBE
                           (   1   4   3   4   0   0   0)
     Any further DFT definition will be discarded
     Please, verify this is what you really want

 
     R & G space division:  proc/nbgrp/npool/nimage =      64
     Subspace diagonalization in iterative solution of the eigenvalue problem:
     one sub-group per band group will be used
     ELPA distributed-memory algorithm (size of sub-group:  3*  3 procs)

 
     Parallelization info
     --------------------
     sticks:   dense  smooth     PW     G-vecs:    dense   smooth      PW
     Min         180      90     24                33956    12002    1671
     Max         181      91     26                33969    12012    1680
     Sum       11557    5773   1555              2173495   768463  107317
 
     Using Slab Decomposition
 


     bravais-lattice index     =            4
     lattice parameter (alat)  =      22.8869  a.u.
     unit-cell volume          =   22488.0312 (a.u.)^3
     number of atoms/cell      =           63
     number of atomic types    =            8
     number of electrons       =       376.00
     number of Kohn-Sham states=          260
     kinetic-energy cutoff     =      40.0000  Ry
     charge density cutoff     =     320.0000  Ry
     scf convergence threshold =      1.0E-08
     mixing beta               =       0.3000
     number of iterations used =            8  plain     mixing
     Exchange-correlation= PBE
                           (   1   4   3   4   0   0   0)

     celldm(1)=  22.886890  celldm(2)=   0.000000  celldm(3)=   2.166010
     celldm(4)=   0.000000  celldm(5)=   0.000000  celldm(6)=   0.000000

     crystal axes: (cart. coord. in units of alat)
               a(1) = (   1.000000   0.000000   0.000000 )  
               a(2) = (  -0.500000   0.866025   0.000000 )  
               a(3) = (   0.000000   0.000000   2.166010 )  

     reciprocal axes: (cart. coord. in units 2 pi/alat)
               b(1) = (  1.000000  0.577350  0.000000 )  
               b(2) = (  0.000000  1.154701  0.000000 )  
               b(3) = (  0.000000  0.000000  0.461678 )  


     PseudoPot. # 1 for Cu read from file:
     ./cu_pbe_v1.2.uspp.F.UPF
     MD5 check sum: 6e991ff952a84172a2a52a1c1e996048
     Pseudo is Ultrasoft + core correction, Zval = 19.0
     Generated by new atomic code, or converted to UPF format
     Using radial grid of  867 points,  6 beta functions with: 
                l(1) =   0
                l(2) =   0
                l(3) =   1
                l(4) =   1
                l(5) =   2
                l(6) =   2
     Q(r) pseudized with  8 coefficients,  rinner =    1.150   1.150   1.150
                                                       1.150   1.150

     PseudoPot. # 2 for In read from file:
     ./in_pbe_v1.4.uspp.F.UPF
     MD5 check sum: 90777abd96fbb83f2e67db2a40c566b9
     Pseudo is Ultrasoft + core correction, Zval = 13.0
     Generated by new atomic code, or converted to UPF format
     Using radial grid of  889 points,  6 beta functions with: 
                l(1) =   0
                l(2) =   0
                l(3) =   1
                l(4) =   1
                l(5) =   2
                l(6) =   2
     Q(r) pseudized with  6 coefficients,  rinner =    1.400   1.400   1.400
                                                       1.400   1.400

     PseudoPot. # 3 for P  read from file:
     ./p_pbe_v1.5.uspp.F.UPF
     MD5 check sum: eb82b2c351da08c5f5f8709277dc7ee5
     Pseudo is Ultrasoft + core correction, Zval =  5.0
     Generated by new atomic code, or converted to UPF format
     Using radial grid of  903 points,  6 beta functions with: 
                l(1) =   0
                l(2) =   0
                l(3) =   1
                l(4) =   1
                l(5) =   2
                l(6) =   2
     Q(r) pseudized with  8 coefficients,  rinner =    1.300   1.300   1.300
                                                       1.300   1.300

     PseudoPot. # 4 for S  read from file:
     ./s_pbe_v1.4.uspp.F.UPF
     MD5 check sum: 88d86576ff6df21479756cfb9bdac1df
     Pseudo is Ultrasoft + core correction, Zval =  6.0
     Generated by new atomic code, or converted to UPF format
     Using radial grid of  907 points,  6 beta functions with: 
                l(1) =   0
                l(2) =   0
                l(3) =   1
                l(4) =   1
                l(5) =   2
                l(6) =   2
     Q(r) pseudized with  8 coefficients,  rinner =    1.300   1.300   1.300
                                                       1.300   1.300

     PseudoPot. # 5 for C  read from file:
     ./c_pbe_v1.2.uspp.F.UPF
     MD5 check sum: d1aef80898a10debaa0f26306b886e00
     Pseudo is Ultrasoft + core correction, Zval =  4.0
     Generated by new atomic code, or converted to UPF format
     Using radial grid of  721 points,  4 beta functions with: 
                l(1) =   0
                l(2) =   0
                l(3) =   1
                l(4) =   1
     Q(r) pseudized with  8 coefficients,  rinner =    1.100   1.100   1.100


     PseudoPot. # 6 for O  read from file:
     ./o_pbe_v1.2.uspp.F.UPF
     MD5 check sum: 734c27235a0248c51dbae37a1fbe46ec
     Pseudo is Ultrasoft + core correction, Zval =  6.0
     Generated by new atomic code, or converted to UPF format
     Using radial grid of  737 points,  5 beta functions with: 
                l(1) =   0
                l(2) =   0
                l(3) =   1
                l(4) =   1
                l(5) =   2
     Q(r) pseudized with  8 coefficients,  rinner =    0.900   0.900   0.900
                                                       0.900   0.900

     PseudoPot. # 7 for N  read from file:
     ./n_pbe_v1.2.uspp.F.UPF
     MD5 check sum: 95339753478d7afb44899504a8723017
     Pseudo is Ultrasoft + core correction, Zval =  5.0
     Generated by new atomic code, or converted to UPF format
     Using radial grid of  729 points,  4 beta functions with: 
                l(1) =   0
                l(2) =   0
                l(3) =   1
                l(4) =   1
     Q(r) pseudized with  8 coefficients,  rinner =    0.900   0.900   0.900


     PseudoPot. # 8 for H  read from file:
     ./h_pbe_v1.4.uspp.F.UPF
     MD5 check sum: 761ae9a214b05c3daf00ab9f6b793d6f
     Pseudo is Ultrasoft, Zval =  1.0
     Generated by new atomic code, or converted to UPF format
     Using radial grid of  615 points,  2 beta functions with: 
                l(1) =   0
                l(2) =   0
     Q(r) pseudized with  8 coefficients,  rinner =    0.700

     atomic species   valence    mass     pseudopotential
     Cu               19.00    63.54600     Cu( 1.00)
     In               13.00   114.81800     In( 1.00)
     P                 5.00    30.97400     P ( 1.00)
     S                 6.00    32.06500     S ( 1.00)
     C                 4.00    12.01100     C ( 1.00)
     O                 6.00    15.99900     O ( 1.00)
     N                 5.00    14.00670     N ( 1.00)
     H                 1.00     1.00780     H ( 1.00)

     No symmetry found



   Cartesian axes

     site n.     atom                  positions (alat units)
         1        Cu     tau(   1) = (   0.2465203   0.1348021   1.1613954  )
         2        Cu     tau(   2) = (  -0.0050406   0.5688292   1.2290482  )
         3        Cu     tau(   3) = (   0.7454670   0.1353491   1.1646353  )
         4        Cu     tau(   4) = (   0.4944083   0.5683484   1.1647310  )
         5        In     tau(   5) = (   0.9945984  -0.0106665   1.0349137  )
         6        In     tau(   6) = (   0.7465816   0.4231300   1.0325933  )
         7        In     tau(   7) = (   0.4952599  -0.0126034   1.0354003  )
         8        In     tau(   8) = (   0.2443724   0.4220200   1.0333020  )
         9        P      tau(   9) = (  -0.0049543   0.2771244   0.9565079  )
        10        P      tau(  10) = (  -0.2554546   0.7112400   0.9578135  )
        11        P      tau(  11) = (   0.4950318   0.2773880   0.9588546  )
        12        P      tau(  12) = (   0.2447902   0.7105930   0.9605590  )
        13        P      tau(  13) = (  -0.0036894   0.2779347   1.1425458  )
        14        P      tau(  14) = (  -0.2553525   0.7103436   1.1438155  )
        15        P      tau(  15) = (   0.4956555   0.2788957   1.1445441  )
        16        P      tau(  16) = (   0.2446707   0.7121447   1.1467732  )
        17        S      tau(  17) = (  -0.0938708   0.1418155   0.9137954  )
        18        S      tau(  18) = (  -0.3442496   0.5761736   0.9139380  )
        19        S      tau(  19) = (   0.4062337   0.1419459   0.9163673  )
        20        S      tau(  20) = (   0.1557391   0.5763468   0.9159693  )
        21        S      tau(  21) = (   0.4061979   0.7003501   0.9171364  )
        22        S      tau(  22) = (   0.6563570   0.2682485   0.9149960  )
        23        S      tau(  23) = (  -0.0942655   0.7016847   0.9143654  )
        24        S      tau(  24) = (   0.1564823   0.2678526   0.9129144  )
        25        S      tau(  25) = (  -0.3284958   0.8554376   0.9144580  )
        26        S      tau(  26) = (  -0.0775772   0.4209015   0.9116341  )
        27        S      tau(  27) = (   0.1729159   0.8553040   0.9165507  )
        28        S      tau(  28) = (   0.4220751   0.4214847   0.9143765  )
        29        S      tau(  29) = (   0.3377539   0.8460188   1.1962465  )
        30        S      tau(  30) = (   0.5874586   0.4130655   1.1946547  )
        31        S      tau(  31) = (  -0.1635980   0.8444160   1.1956748  )
        32        S      tau(  32) = (   0.0885726   0.4108483   1.1925764  )
        33        S      tau(  33) = (   0.0659671   0.1314609   1.1942328  )
        34        S      tau(  34) = (  -0.1865201   0.5636938   1.1941679  )
        35        S      tau(  35) = (   0.5650830   0.1325237   1.1965592  )
        36        S      tau(  36) = (   0.3141135   0.5654801   1.1980911  )
        37        S      tau(  37) = (  -0.4165432   0.7248699   1.1965219  )
        38        S      tau(  38) = (  -0.1649172   0.2918269   1.1955375  )
        39        S      tau(  39) = (   0.0842377   0.7278555   1.1999438  )
        40        S      tau(  40) = (   0.3338635   0.2918425   1.1959725  )
        41        C      tau(  41) = (  -0.0052361   0.5824657   1.6057846  )
        42        C      tau(  42) = (  -0.0233739   0.6271922   1.4892646  )
        43        C      tau(  43) = (  -0.1472034   0.6516155   1.4715996  )
        44        C      tau(  44) = (  -0.1985744   0.7263088   1.5566165  )
        45        C      tau(  45) = (  -0.1872462   0.8411813   1.5485836  )
        46        C      tau(  46) = (  -0.2585051   0.6821714   1.6451981  )
        47        C      tau(  47) = (   0.2652338   0.0444109   1.6274288  )
        48        C      tau(  48) = (  -0.3062134   0.7512720   1.7241964  )
        49        C      tau(  49) = (  -0.2944330   0.8656533   1.7154728  )
        50        O      tau(  50) = (   0.0325256   0.6606693   1.6760316  )
        51        O      tau(  51) = (  -0.0237383   0.4872998   1.6322791  )
        52        N      tau(  52) = (   0.0127655   0.5448122   1.4068479  )
        53        H      tau(  53) = (  -0.1910677   0.5716481   1.4699312  )
        54        H      tau(  54) = (  -0.0248901   0.4708144   1.4262439  )
        55        H      tau(  55) = (  -0.2682732   0.5924437   1.6516837  )
        56        H      tau(  56) = (  -0.3533236   0.7155746   1.7925706  )
        57        H      tau(  57) = (   0.0250558   0.7033767   1.4777022  )
        58        H      tau(  58) = (  -0.1546170   0.6883946   1.3886498  )
        59        H      tau(  59) = (   0.3584707   0.0105238   1.4789609  )
        60        H      tau(  60) = (   0.2742419   0.1339910   1.6197812  )
        61        H      tau(  61) = (   0.0960817   0.5302693   1.4159349  )
        62        H      tau(  62) = (   0.0372862   0.6255331   1.7495999  )
        63        H      tau(  63) = (  -0.3323073   0.9200167   1.7768844  )

     -------------------------------------------------
     Parameters for Dispersion (Grimme-D2) Correction:
     -------------------------------------------------
       atom      VdW radius       C_6     

        Cu         2.952        374.666
        In         3.160       1294.678
        P          3.222        271.980
        S          3.180        193.230
        C          2.744         60.710
        O          2.536         24.284
        N          2.640         42.670
        H          1.892          4.857

     number of k points=    54  Gaussian smearing, width (Ry)=  0.0100
                       cart. coord. in units 2pi/alat
        k(    1) = (   0.0833333   0.1443376  -0.2308392), wk =   0.0370370
        k(    2) = (   0.0833333   0.3367877  -0.2308392), wk =   0.0370370
        k(    3) = (   0.0833333   0.5292377  -0.2308392), wk =   0.0370370
        k(    4) = (   0.0833333  -0.4330127  -0.2308392), wk =   0.0370370
        k(    5) = (   0.0833333  -0.2405626  -0.2308392), wk =   0.0370370
        k(    6) = (   0.0833333  -0.0481125  -0.2308392), wk =   0.0370370
        k(    7) = (   0.2500000   0.4330127  -0.2308392), wk =   0.0370370
        k(    8) = (   0.2500000   0.6254628  -0.2308392), wk =   0.0370370
        k(    9) = (   0.2500000  -0.3367877  -0.2308392), wk =   0.0370370
        k(   10) = (   0.2500000  -0.1443376  -0.2308392), wk =   0.0370370
        k(   11) = (   0.4166667   0.7216878  -0.2308392), wk =   0.0370370
        k(   12) = (   0.4166667  -0.2405626  -0.2308392), wk =   0.0370370
        k(   13) = (  -0.0833333   0.1443376   0.2308392), wk =   0.0370370
        k(   14) = (   0.1666667   0.0000000  -0.2308392), wk =   0.0370370
        k(   15) = (  -0.0833333   0.3367877   0.2308392), wk =   0.0370370
        k(   16) = (  -0.2500000   0.2405626  -0.2308392), wk =   0.0370370
        k(   17) = (   0.3333333   0.0962250  -0.2308392), wk =   0.0370370
        k(   18) = (  -0.2500000  -0.2405626   0.2308392), wk =   0.0370370
        k(   19) = (   0.3333333  -0.0962250   0.2308392), wk =   0.0370370
        k(   20) = (  -0.0833333   0.5292377   0.2308392), wk =   0.0370370
        k(   21) = (  -0.4166667   0.3367877  -0.2308392), wk =   0.0370370
        k(   22) = (   0.5000000   0.1924501  -0.2308392), wk =   0.0370370
        k(   23) = (  -0.4166667  -0.3367877   0.2308392), wk =   0.0370370
        k(   24) = (   0.5000000  -0.1924501   0.2308392), wk =   0.0370370
        k(   25) = (  -0.0833333  -0.4330127   0.2308392), wk =   0.0370370
        k(   26) = (   0.4166667  -0.1443376  -0.2308392), wk =   0.0370370
        k(   27) = (  -0.3333333  -0.2886751  -0.2308392), wk =   0.0370370
        k(   28) = (   0.4166667   0.1443376   0.2308392), wk =   0.0370370
        k(   29) = (  -0.3333333   0.2886751   0.2308392), wk =   0.0370370
        k(   30) = (  -0.0833333  -0.2405626   0.2308392), wk =   0.0370370
        k(   31) = (   0.2500000  -0.0481125  -0.2308392), wk =   0.0370370
        k(   32) = (  -0.1666667  -0.1924501  -0.2308392), wk =   0.0370370
        k(   33) = (   0.2500000   0.0481125   0.2308392), wk =   0.0370370
        k(   34) = (  -0.1666667   0.1924501   0.2308392), wk =   0.0370370
        k(   35) = (  -0.0833333  -0.0481125   0.2308392), wk =   0.0370370
        k(   36) = (   0.0000000  -0.0962250  -0.2308392), wk =   0.0370370
        k(   37) = (  -0.2500000   0.4330127   0.2308392), wk =   0.0370370
        k(   38) = (   0.5000000   0.0000000  -0.2308392), wk =   0.0370370
        k(   39) = (  -0.2500000   0.6254628   0.2308392), wk =   0.0370370
        k(   40) = (  -0.4166667   0.5292377  -0.2308392), wk =   0.0370370
        k(   41) = (   0.6666667   0.0962250  -0.2308392), wk =   0.0370370
        k(   42) = (  -0.4166667  -0.5292377   0.2308392), wk =   0.0370370
        k(   43) = (   0.6666667  -0.0962250   0.2308392), wk =   0.0370370
        k(   44) = (  -0.2500000  -0.3367877   0.2308392), wk =   0.0370370
        k(   45) = (   0.4166667   0.0481125  -0.2308392), wk =   0.0370370
        k(   46) = (  -0.1666667  -0.3849002  -0.2308392), wk =   0.0370370
        k(   47) = (   0.4166667  -0.0481125   0.2308392), wk =   0.0370370
        k(   48) = (  -0.1666667   0.3849002   0.2308392), wk =   0.0370370
        k(   49) = (  -0.2500000  -0.1443376   0.2308392), wk =   0.0370370
        k(   50) = (   0.0000000  -0.2886751  -0.2308392), wk =   0.0370370
        k(   51) = (  -0.4166667   0.7216878   0.2308392), wk =   0.0370370
        k(   52) = (   0.8333333   0.0000000  -0.2308392), wk =   0.0370370
        k(   53) = (  -0.4166667  -0.2405626   0.2308392), wk =   0.0370370
        k(   54) = (   0.0000000  -0.4811252  -0.2308392), wk =   0.0370370

     Dense  grid:  2173495 G-vectors     FFT dimensions: ( 135, 135, 288)

     Smooth grid:   768463 G-vectors     FFT dimensions: (  96,  96, 200)

     Estimated max dynamical RAM per process >     494.73 MB

     Estimated total dynamical RAM >      30.92 GB

     Initial potential from superposition of free atoms

     starting charge     365.9974, renormalised to     376.0000

     negative rho (up, down):  3.549E-03 0.000E+00
     Starting wfcs are  275 randomized atomic wfcs

     total cpu time spent up to now is       25.4 secs

     per-process dynamical memory:   101.1 Mb

     Self-consistent Calculation

     iteration #  1     ecut=    40.00 Ry     beta= 0.30
     Davidson diagonalization with overlap
     ethr =  1.00E-02,  avg # of iterations = 10.1

     negative rho (up, down):  1.706E-03 0.000E+00

     total cpu time spent up to now is      126.6 secs

     total energy              =   -3002.89487933 Ry
     estimated scf accuracy    <     114.00569636 Ry

     iteration #  2     ecut=    40.00 Ry     beta= 0.30
     Davidson diagonalization with overlap
     ethr =  1.00E-02,  avg # of iterations = 10.1

     negative rho (up, down):  1.712E-03 0.000E+00

     total cpu time spent up to now is      325.1 secs

     total energy              =   -2806.50902796 Ry
     estimated scf accuracy    <    6462.05245992 Ry

     iteration #  3     ecut=    40.00 Ry     beta= 0.30
     Davidson diagonalization with overlap
     ethr =  1.00E-02,  avg # of iterations =  9.2

     negative rho (up, down):  1.759E-03 0.000E+00

     total cpu time spent up to now is      470.0 secs

     total energy              =   -3054.56468963 Ry
     estimated scf accuracy    <       9.80103765 Ry

     iteration #  4     ecut=    40.00 Ry     beta= 0.30
     Davidson diagonalization with overlap
     ethr =  2.61E-03,  avg # of iterations =  8.2

     negative rho (up, down):  1.613E-03 0.000E+00

     total cpu time spent up to now is      542.2 secs

     total energy              =   -3054.35183956 Ry
     estimated scf accuracy    <       3.43771247 Ry

     iteration #  5     ecut=    40.00 Ry     beta= 0.30
     Davidson diagonalization with overlap
     ethr =  9.14E-04,  avg # of iterations =  4.5

     negative rho (up, down):  1.692E-03 0.000E+00

     total cpu time spent up to now is      605.0 secs

     total energy              =   -3054.19055814 Ry
     estimated scf accuracy    <       4.20854236 Ry

     iteration #  6     ecut=    40.00 Ry     beta= 0.30
     Davidson diagonalization with overlap
     ethr =  9.14E-04,  avg # of iterations =  2.0

     negative rho (up, down):  1.342E-03 0.000E+00

     total cpu time spent up to now is      659.9 secs

     total energy              =   -3054.09065359 Ry
     estimated scf accuracy    <       1.15442171 Ry

     iteration #  7     ecut=    40.00 Ry     beta= 0.30
     Davidson diagonalization with overlap
     ethr =  3.07E-04,  avg # of iterations = 10.4

     negative rho (up, down):  1.297E-03 0.000E+00

     total cpu time spent up to now is      737.0 secs

     total energy              =   -3054.03493014 Ry
     estimated scf accuracy    <       0.53339324 Ry

     iteration #  8     ecut=    40.00 Ry     beta= 0.30
     Davidson diagonalization with overlap
     ethr =  1.42E-04,  avg # of iterations =  4.0

     negative rho (up, down):  1.379E-03 0.000E+00

     total cpu time spent up to now is      797.0 secs

     total energy              =   -3054.01591901 Ry
     estimated scf accuracy    <       0.26030799 Ry

     iteration #  9     ecut=    40.00 Ry     beta= 0.30
     Davidson diagonalization with overlap
     c_bands:  1 eigenvalues not converged
     c_bands:  1 eigenvalues not converged
     c_bands:  2 eigenvalues not converged
     c_bands:  1 eigenvalues not converged
     c_bands:  1 eigenvalues not converged
     c_bands:  3 eigenvalues not converged
     c_bands:  1 eigenvalues not converged
     ethr =  6.92E-05,  avg # of iterations =  8.6

     negative rho (up, down):  1.470E-03 0.000E+00

     total cpu time spent up to now is      862.9 secs

     total energy              =   -3053.99301978 Ry
     estimated scf accuracy    <       0.17051942 Ry

     iteration # 10     ecut=    40.00 Ry     beta= 0.30
     Davidson diagonalization with overlap
     c_bands:  1 eigenvalues not converged
     c_bands:  1 eigenvalues not converged
     c_bands:  1 eigenvalues not converged
     c_bands:  1 eigenvalues not converged
     c_bands:  1 eigenvalues not converged
     ethr =  4.54E-05,  avg # of iterations = 14.4

     negative rho (up, down):  1.553E-03 0.000E+00

     total cpu time spent up to now is      943.8 secs

     total energy              =   -3053.97668775 Ry
     estimated scf accuracy    <       0.11740059 Ry

     iteration # 11     ecut=    40.00 Ry     beta= 0.30
     Davidson diagonalization with overlap
     c_bands:  2 eigenvalues not converged
     ethr =  3.12E-05,  avg # of iterations =  7.2

     negative rho (up, down):  2.942E-03 0.000E+00

     total cpu time spent up to now is     1009.4 secs

     total energy              =   -3053.94653087 Ry
     estimated scf accuracy    <       0.07893478 Ry

     iteration # 12     ecut=    40.00 Ry     beta= 0.30
     Davidson diagonalization with overlap
     ethr =  2.10E-05,  avg # of iterations = 13.0

     negative rho (up, down):  5.934E-03 0.000E+00

     total cpu time spent up to now is     1102.2 secs

     total energy              =   -3053.94795459 Ry
     estimated scf accuracy    <       0.03087637 Ry

     iteration # 13     ecut=    40.00 Ry     beta= 0.30
     Davidson diagonalization with overlap
     ethr =  8.21E-06,  avg # of iterations =  2.3

     negative rho (up, down):  7.517E-03 0.000E+00

     total cpu time spent up to now is     1157.6 secs

     total energy              =   -3053.94350715 Ry
     estimated scf accuracy    <       0.02216252 Ry

     iteration # 14     ecut=    40.00 Ry     beta= 0.30
     Davidson diagonalization with overlap
     c_bands:  1 eigenvalues not converged
     ethr =  5.89E-06,  avg # of iterations = 15.6

     negative rho (up, down):  1.024E-02 0.000E+00

     total cpu time spent up to now is     1242.2 secs

     total energy              =   -3053.93464304 Ry
     estimated scf accuracy    <       0.01345838 Ry

     iteration # 15     ecut=    40.00 Ry     beta= 0.30
     Davidson diagonalization with overlap
     ethr =  3.58E-06,  avg # of iterations = 15.0

     negative rho (up, down):  8.278E-03 0.000E+00

     total cpu time spent up to now is     1345.0 secs

     total energy              =   -3053.93653108 Ry
     estimated scf accuracy    <       0.00107630 Ry

     iteration # 16     ecut=    40.00 Ry     beta= 0.30
     Davidson diagonalization with overlap
     ethr =  2.86E-07,  avg # of iterations =  6.3

     negative rho (up, down):  6.059E-03 0.000E+00

     total cpu time spent up to now is     1422.1 secs

     total energy              =   -3053.93682307 Ry
     estimated scf accuracy    <       0.00027204 Ry

     iteration # 17     ecut=    40.00 Ry     beta= 0.30
     Davidson diagonalization with overlap
     ethr =  7.24E-08,  avg # of iterations =  3.9

     negative rho (up, down):  4.182E-03 0.000E+00

     total cpu time spent up to now is     1483.3 secs

     total energy              =   -3053.93684226 Ry
     estimated scf accuracy    <       0.00007957 Ry

     iteration # 18     ecut=    40.00 Ry     beta= 0.30
     Davidson diagonalization with overlap
     ethr =  2.12E-08,  avg # of iterations =  2.1

     negative rho (up, down):  3.859E-03 0.000E+00

     total cpu time spent up to now is     1539.3 secs

     total energy              =   -3053.93684866 Ry
     estimated scf accuracy    <       0.00001857 Ry

     iteration # 19     ecut=    40.00 Ry     beta= 0.30
     Davidson diagonalization with overlap
     ethr =  4.94E-09,  avg # of iterations =  2.0

     negative rho (up, down):  3.685E-03 0.000E+00

     total cpu time spent up to now is     1597.3 secs

     total energy              =   -3053.93685078 Ry
     estimated scf accuracy    <       0.00000366 Ry

     iteration # 20     ecut=    40.00 Ry     beta= 0.30
     Davidson diagonalization with overlap
     ethr =  9.75E-10,  avg # of iterations =  2.1

     negative rho (up, down):  3.588E-03 0.000E+00

     total cpu time spent up to now is     1658.6 secs

     total energy              =   -3053.93685146 Ry
     estimated scf accuracy    <       0.00000105 Ry

     iteration # 21     ecut=    40.00 Ry     beta= 0.30
     Davidson diagonalization with overlap
     ethr =  2.79E-10,  avg # of iterations =  2.4

     negative rho (up, down):  3.557E-03 0.000E+00

     total cpu time spent up to now is     1715.4 secs

     total energy              =   -3053.93685165 Ry
     estimated scf accuracy    <       0.00000022 Ry

     iteration # 22     ecut=    40.00 Ry     beta= 0.30
     Davidson diagonalization with overlap
     ethr =  5.87E-11,  avg # of iterations =  4.5

     negative rho (up, down):  3.557E-03 0.000E+00

     total cpu time spent up to now is     1787.0 secs

     total energy              =   -3053.93685171 Ry
     estimated scf accuracy    <       0.00000006 Ry

     iteration # 23     ecut=    40.00 Ry     beta= 0.30
     Davidson diagonalization with overlap
     ethr =  1.64E-11,  avg # of iterations =  4.1

     negative rho (up, down):  3.556E-03 0.000E+00

     total cpu time spent up to now is     1855.8 secs

     total energy              =   -3053.93685172 Ry
     estimated scf accuracy    <       0.00000001 Ry

     iteration # 24     ecut=    40.00 Ry     beta= 0.30
     Davidson diagonalization with overlap
     ethr =  3.85E-12,  avg # of iterations =  3.9

     negative rho (up, down):  3.553E-03 0.000E+00

     total cpu time spent up to now is     1926.5 secs

     End of self-consistent calculation

          k = 0.0833 0.1443-0.2308 ( 95992 PWs)   bands (ev):

  -113.4891-113.4844-113.4802-113.2969 -70.9625 -70.9579 -70.9572 -70.9537
   -70.9520 -70.9509 -70.8125 -70.8085 -70.7935 -70.7863 -70.7829 -70.5147
   -25.1437 -22.8643 -20.4166 -18.4177 -18.0307 -17.8840 -17.8768 -17.8690
   -17.0723 -17.0680 -17.0634 -17.0324 -16.7883 -16.6418 -16.6209 -16.6031
   -16.5982 -16.5965 -16.3874 -16.3848 -16.3719 -16.3534 -16.3516 -16.3478
   -16.3459 -16.3437 -16.3364 -16.3313 -16.3301 -16.3152 -16.2460 -16.2416
   -16.2255 -15.5506 -15.5347 -15.5138 -15.4604 -15.2893 -15.1158 -15.0961
   -15.0916 -14.9600 -14.9432 -14.8231 -14.8027 -14.7926 -14.4752 -14.4624
   -14.4579 -14.3659 -14.3474 -13.8968 -12.3070 -12.2512 -11.9758 -11.7095
   -11.6907 -11.6657 -11.3233 -10.5578 -10.5086 -10.0375 -10.0245  -9.9868
    -9.9643  -9.3083  -9.2784  -8.9147  -8.8785  -8.6548  -8.6406  -8.6134
    -8.5151  -8.0599  -7.9969  -7.9644  -7.9505  -7.9086  -7.8768  -7.8365
    -7.6795  -7.6445  -7.6296  -7.4314  -7.3895  -7.3800  -7.3193  -7.2785
    -7.2375  -7.1739  -6.9303  -6.8286  -6.7783  -6.7286  -6.7148  -6.5631
    -6.5456  -6.5262  -6.4674  -6.2120  -5.9349  -5.7885  -5.7121  -5.7044
    -5.5809  -5.4983  -5.4869  -5.4192  -5.3272  -5.2683  -5.2308  -5.1827
    -5.1660  -5.1518  -5.1053  -5.0792  -5.0676  -5.0038  -4.9707  -4.9387
    -4.9162  -4.7565  -4.7500  -4.7384  -4.6429  -4.6165  -4.4709  -4.4526
    -4.4366  -4.3220  -4.3100  -4.2946  -4.1321  -4.0796  -4.0535  -4.0170
    -3.9981  -3.9749  -3.9531  -3.8893  -3.8725  -3.7635  -3.5817  -3.5757
    -3.5649  -3.4231  -3.3922  -3.3820  -3.3667  -3.2768  -3.2723  -3.2387
    -3.2305  -3.1701  -3.1554  -3.1347  -3.1063  -3.0848  -3.0670  -3.0316
    -2.9980  -2.9346  -2.8877  -2.7242  -2.6712  -2.6445  -2.5827  -2.5443
    -2.5110  -2.4143  -2.3316  -2.2862  -0.4825  -0.1414  -0.1133  -0.0666
     0.4503   0.6415   0.7012   0.7248   0.7876   0.8134   0.8477   1.0107
     1.0513   1.0682   1.1801   1.2029   1.2284   1.2414   1.2738   1.3270
     1.5161   1.6259   1.6457   1.6631   1.7004   1.7325   1.8082   2.0053
     2.0178   2.0401   2.0560   2.3674   2.4452   2.4908   2.5168   2.5358
     2.6937   2.7818   2.8414   2.8634   2.9185   3.0100   3.0692   3.1458
     3.2005   3.2149   3.2346   3.2623   3.2953   3.3605   3.3803   3.4709
     3.5406   3.5798   3.6536   3.6741   3.7205   3.7611   3.7931   3.8485
     3.9568   4.0093   4.0701   4.1403   4.1729   4.2039   4.2398   4.3300
     4.3412   4.3804   4.4115   4.4465

          k = 0.0833 0.3368-0.2308 ( 96032 PWs)   bands (ev):

  -113.4891-113.4844-113.4802-113.2969 -70.9625 -70.9579 -70.9572 -70.9537
   -70.9520 -70.9509 -70.8125 -70.8085 -70.7935 -70.7863 -70.7829 -70.5147
   -25.1437 -22.8643 -20.4166 -18.4177 -18.0068 -17.9081 -17.8844 -17.8660
   -17.0674 -17.0646 -17.0593 -17.0419 -16.7882 -16.6382 -16.6232 -16.6138
   -16.6103 -16.5740 -16.4130 -16.3834 -16.3609 -16.3529 -16.3503 -16.3482
   -16.3446 -16.3425 -16.3382 -16.3329 -16.3310 -16.3126 -16.2747 -16.2447
   -16.2088 -15.5273 -15.4793 -15.4601 -15.4283 -15.2906 -15.1745 -15.1328
   -15.0738 -15.0519 -14.9709 -14.8119 -14.7656 -14.7201 -14.4951 -14.4714
   -14.4429 -14.4340 -14.3678 -13.8967 -12.2621 -12.1823 -11.9758 -11.7928
   -11.7068 -11.6362 -11.3232 -10.5457 -10.4416 -10.1192 -10.0205  -9.9789
    -9.9322  -9.3083  -9.2785  -8.8796  -8.8710  -8.6897  -8.6178  -8.5439
    -8.5132  -8.0791  -8.0418  -8.0155  -7.9923  -7.9740  -7.8687  -7.7852
    -7.7226  -7.6808  -7.6401  -7.5201  -7.4826  -7.4389  -7.4080  -7.2869
    -7.1767  -7.1337  -6.9303  -6.8500  -6.8238  -6.7581  -6.7527  -6.4621
    -6.4145  -6.3973  -6.3598  -6.2089  -5.9343  -5.7322  -5.6526  -5.6274
    -5.5790  -5.4992  -5.4684  -5.3894  -5.3180  -5.2680  -5.2423  -5.1905
    -5.1516  -5.1390  -5.1162  -5.0863  -5.0596  -4.9951  -4.9670  -4.9602
    -4.9273  -4.7847  -4.7565  -4.7373  -4.6756  -4.6431  -4.5227  -4.4786
    -4.4673  -4.3309  -4.3147  -4.2964  -4.1769  -4.0497  -4.0172  -3.9758
    -3.9666  -3.9445  -3.9038  -3.8500  -3.8289  -3.7039  -3.5818  -3.5730
    -3.5565  -3.4074  -3.3920  -3.3649  -3.3472  -3.3144  -3.2639  -3.2486
    -3.2255  -3.1901  -3.1564  -3.1457  -3.1228  -3.0961  -3.0520  -3.0229
    -3.0001  -2.9681  -2.9306  -2.7685  -2.7338  -2.6709  -2.6546  -2.6233
    -2.5552  -2.4737  -2.4152  -2.2887  -0.2820  -0.1875  -0.1213  -0.0311
     0.5247   0.5806   0.6117   0.7351   0.7971   0.9083   0.9872   1.0108
     1.0596   1.1264   1.1501   1.1888   1.2028   1.2588   1.3065   1.3441
     1.4996   1.5347   1.6204   1.6555   1.6867   1.7146   1.7799   1.9891
     2.0661   2.0853   2.1172   2.3198   2.3962   2.4333   2.4710   2.6046
     2.6587   2.7411   2.8048   2.8484   2.8874   2.9584   3.0784   3.1076
     3.1663   3.2022   3.2161   3.2611   3.3167   3.3449   3.4152   3.4757
     3.5203   3.6032   3.7105   3.7361   3.7730   3.7829   3.8535   3.8899
     3.8975   4.0310   4.0772   4.1382   4.1699   4.2034   4.2376   4.3003
     4.3252   4.3514   4.3978   4.5181

          k = 0.0833 0.5292-0.2308 ( 96076 PWs)   bands (ev):

  -113.4891-113.4844-113.4802-113.2969 -70.9625 -70.9579 -70.9572 -70.9537
   -70.9520 -70.9509 -70.8125 -70.8085 -70.7935 -70.7863 -70.7829 -70.5147
   -25.1437 -22.8643 -20.4166 -18.4177 -17.9698 -17.9471 -17.8873 -17.8645
   -17.0641 -17.0593 -17.0562 -17.0510 -16.7881 -16.6379 -16.6316 -16.6246
   -16.6224 -16.5063 -16.4703 -16.3785 -16.3578 -16.3512 -16.3490 -16.3481
   -16.3452 -16.3414 -16.3389 -16.3345 -16.3317 -16.3056 -16.2988 -16.2444
   -16.1986 -15.4997 -15.4610 -15.4419 -15.3030 -15.2776 -15.2265 -15.1994
   -15.1573 -15.0361 -15.0100 -14.7970 -14.7497 -14.6076 -14.5448 -14.5100
   -14.4773 -14.4126 -14.3982 -13.8967 -12.2593 -12.0249 -11.9760 -11.9378
   -11.7073 -11.6192 -11.3229 -10.5433 -10.3199 -10.2493 -10.0108  -9.9787
    -9.9049  -9.3082  -9.2787  -8.8789  -8.8050  -8.7583  -8.5854  -8.5187
    -8.4771  -8.1015  -8.0704  -8.0567  -8.0431  -8.0168  -7.8701  -7.7209
    -7.7025  -7.6716  -7.6523  -7.6267  -7.5800  -7.4898  -7.4675  -7.2910
    -7.1777  -6.9776  -6.9310  -6.8928  -6.8729  -6.8241  -6.7612  -6.4089
    -6.3773  -6.2861  -6.2595  -6.1998  -5.9352  -5.6892  -5.6155  -5.5709
    -5.5114  -5.4845  -5.4486  -5.4283  -5.3322  -5.2805  -5.2484  -5.1804
    -5.1408  -5.1353  -5.1219  -5.0667  -5.0483  -5.0097  -4.9783  -4.9622
    -4.9084  -4.8433  -4.7618  -4.7240  -4.7038  -4.6293  -4.5671  -4.5375
    -4.5033  -4.3145  -4.2885  -4.2772  -4.2155  -4.0172  -3.9813  -3.9682
    -3.9443  -3.9107  -3.8691  -3.8147  -3.7767  -3.6942  -3.6452  -3.6118
    -3.5675  -3.5009  -3.3921  -3.3266  -3.3113  -3.2923  -3.2632  -3.2508
    -3.2319  -3.1890  -3.1734  -3.1388  -3.1243  -3.1082  -3.0527  -3.0050
    -2.9895  -2.9436  -2.8969  -2.8271  -2.8166  -2.7597  -2.6734  -2.6417
    -2.5706  -2.5206  -2.4401  -2.3020  -0.2212  -0.1511  -0.1018  -0.0488
     0.4370   0.5484   0.6682   0.7147   0.7451   0.9098   1.0294   1.0834
     1.1317   1.1364   1.1677   1.1980   1.2226   1.2718   1.3480   1.4003
     1.4953   1.5018   1.5538   1.6506   1.6773   1.7032   1.7379   1.9811
     2.1119   2.1478   2.2145   2.2950   2.3720   2.4112   2.4278   2.5699
     2.6026   2.7219   2.7458   2.8048   2.8422   2.8977   3.0445   3.1541
     3.1896   3.2319   3.2801   3.3008   3.3495   3.3767   3.4502   3.4984
     3.5187   3.5435   3.5658   3.7101   3.7738   3.8314   3.8588   3.9267
     3.9744   4.0289   4.0856   4.1073   4.1755   4.2460   4.2509   4.3076
     4.3473   4.3677   4.4014   4.4450

          k = 0.0833-0.4330-0.2308 ( 96090 PWs)   bands (ev):

  -113.4891-113.4844-113.4802-113.2969 -70.9625 -70.9579 -70.9572 -70.9537
   -70.9520 -70.9509 -70.8125 -70.8085 -70.7935 -70.7863 -70.7829 -70.5147
   -25.1437 -22.8643 -20.4166 -18.4177 -17.9893 -17.9267 -17.8864 -17.8651
   -17.0661 -17.0614 -17.0566 -17.0476 -16.7881 -16.6365 -16.6284 -16.6232
   -16.6165 -16.5420 -16.4393 -16.3780 -16.3609 -16.3514 -16.3498 -16.3478
   -16.3447 -16.3419 -16.3386 -16.3342 -16.3314 -16.3098 -16.2887 -16.2441
   -16.2030 -15.5084 -15.4629 -15.4579 -15.3596 -15.2897 -15.2122 -15.1431
   -15.1259 -15.0568 -14.9875 -14.7983 -14.7626 -14.6603 -14.5087 -14.4889
   -14.4718 -14.4300 -14.3809 -13.8967 -12.2597 -12.1073 -11.9759 -11.8604
   -11.7073 -11.6258 -11.3228 -10.5444 -10.3841 -10.1817 -10.0131  -9.9774
    -9.9175  -9.3082  -9.2787  -8.8801  -8.8376  -8.7249  -8.5945  -8.5261
    -8.4980  -8.0929  -8.0702  -8.0469  -8.0204  -7.9737  -7.8690  -7.7605
    -7.7399  -7.6707  -7.6346  -7.5811  -7.5405  -7.4690  -7.4447  -7.2895
    -7.1772  -7.0610  -6.9305  -6.8659  -6.8261  -6.8151  -6.7516  -6.4338
    -6.4017  -6.3255  -6.2852  -6.2048  -5.9354  -5.7061  -5.6178  -5.5799
    -5.5713  -5.4931  -5.4514  -5.3942  -5.3262  -5.2808  -5.2436  -5.1946
    -5.1433  -5.1337  -5.1207  -5.0816  -5.0351  -5.0149  -4.9813  -4.9615
    -4.9127  -4.8149  -4.7629  -4.7270  -4.6907  -4.6419  -4.5483  -4.5182
    -4.4798  -4.3167  -4.2997  -4.2876  -4.2003  -4.0378  -4.0081  -3.9713
    -3.9429  -3.9080  -3.8913  -3.8349  -3.7981  -3.6864  -3.6171  -3.5774
    -3.5717  -3.4685  -3.3921  -3.3392  -3.3302  -3.2985  -3.2691  -3.2408
    -3.2233  -3.2000  -3.1714  -3.1515  -3.1276  -3.0889  -3.0451  -3.0249
    -3.0017  -2.9546  -2.9022  -2.8154  -2.7801  -2.7259  -2.6714  -2.6241
    -2.5663  -2.4963  -2.4326  -2.3050  -0.2202  -0.1810  -0.1231  -0.0311
     0.4607   0.5853   0.6375   0.7140   0.7536   0.9388   0.9992   1.0788
     1.0971   1.1326   1.1814   1.1926   1.2229   1.2439   1.3319   1.3602
     1.4571   1.5504   1.5791   1.6489   1.6970   1.7108   1.7439   1.9947
     2.0717   2.1208   2.1754   2.2994   2.3715   2.4127   2.4715   2.5808
     2.6234   2.7169   2.7705   2.8409   2.8626   2.9276   3.0416   3.1488
     3.1940   3.2051   3.2381   3.2947   3.3170   3.3740   3.4128   3.4860
     3.5399   3.5812   3.6661   3.6953   3.7572   3.8252   3.8418   3.9311
     3.9401   4.0241   4.1052   4.1374   4.1865   4.2255   4.2512   4.2680
     4.3256   4.3726   4.4301   4.4565

          k = 0.0833-0.2406-0.2308 ( 96078 PWs)   bands (ev):

  -113.4891-113.4844-113.4802-113.2969 -70.9625 -70.9579 -70.9572 -70.9537
   -70.9520 -70.9509 -70.8125 -70.8085 -70.7935 -70.7863 -70.7829 -70.5147
   -25.1437 -22.8643 -20.4166 -18.4177 -18.0208 -17.8922 -17.8823 -17.8675
   -17.0711 -17.0657 -17.0611 -17.0371 -16.7882 -16.6381 -16.6128 -16.6066
   -16.6033 -16.6016 -16.3968 -16.3812 -16.3697 -16.3529 -16.3512 -16.3479
   -16.3447 -16.3434 -16.3372 -16.3319 -16.3309 -16.3142 -16.2595 -16.2430
   -16.2183 -15.5401 -15.5077 -15.4810 -15.4603 -15.2893 -15.1501 -15.1000
   -15.0890 -15.0029 -14.9509 -14.8134 -14.7910 -14.7602 -14.4837 -14.4658
   -14.4528 -14.3953 -14.3562 -13.8968 -12.2721 -12.2381 -11.9758 -11.7380
   -11.7046 -11.6511 -11.3229 -10.5508 -10.4828 -10.0699 -10.0214  -9.9750
    -9.9602  -9.3083  -9.2786  -8.8996  -8.8756  -8.6681  -8.6313  -8.5862
    -8.5131  -8.0630  -8.0246  -8.0005  -7.9523  -7.9362  -7.8627  -7.8260
    -7.7062  -7.6603  -7.6407  -7.4706  -7.4281  -7.4049  -7.3623  -7.2822
    -7.1969  -7.1751  -6.9301  -6.8292  -6.8133  -6.7361  -6.7264  -6.5175
    -6.4842  -6.4691  -6.4124  -6.2110  -5.9352  -5.7617  -5.6834  -5.6733
    -5.5841  -5.4965  -5.4745  -5.4008  -5.3221  -5.2695  -5.2327  -5.1929
    -5.1594  -5.1481  -5.1132  -5.0925  -5.0468  -5.0025  -4.9736  -4.9420
    -4.9266  -4.7674  -4.7544  -4.7356  -4.6540  -4.6360  -4.4933  -4.4630
    -4.4387  -4.3204  -4.3179  -4.3044  -4.1568  -4.0684  -4.0452  -3.9989
    -3.9702  -3.9579  -3.9336  -3.8779  -3.8505  -3.7320  -3.5808  -3.5660
    -3.5584  -3.4036  -3.3923  -3.3684  -3.3558  -3.3054  -3.2639  -3.2430
    -3.2156  -3.1853  -3.1624  -3.1355  -3.1178  -3.0907  -3.0673  -3.0172
    -2.9989  -2.9763  -2.9161  -2.7464  -2.7045  -2.6449  -2.6066  -2.5705
    -2.5278  -2.4594  -2.3709  -2.2977  -0.3861  -0.1768  -0.0975  -0.0497
     0.5141   0.5716   0.6853   0.7157   0.8061   0.8703   0.9181   0.9899
     1.0653   1.1087   1.1589   1.1986   1.2143   1.2396   1.2617   1.3326
     1.5264   1.5804   1.6273   1.6550   1.6987   1.7202   1.8053   1.9961
     2.0309   2.0646   2.0738   2.3464   2.4228   2.4635   2.4765   2.5648
     2.6917   2.7850   2.8430   2.8585   2.9037   2.9680   3.0950   3.1112
     3.1687   3.1921   3.2134   3.2719   3.2995   3.3718   3.4009   3.4868
     3.5349   3.5720   3.6619   3.7140   3.7683   3.7805   3.8286   3.8909
     3.9638   4.0090   4.0536   4.1050   4.1551   4.1964   4.2394   4.2983
     4.3558   4.3777   4.4296   4.4706

          k = 0.0833-0.0481-0.2308 ( 96016 PWs)   bands (ev):

  -113.4891-113.4844-113.4802-113.2969 -70.9625 -70.9579 -70.9572 -70.9537
   -70.9520 -70.9509 -70.8125 -70.8085 -70.7935 -70.7863 -70.7829 -70.5147
   -25.1437 -22.8643 -20.4166 -18.4177 -18.0357 -17.8785 -17.8763 -17.8688
   -17.0742 -17.0684 -17.0640 -17.0302 -16.7883 -16.6378 -16.6356 -16.5980
   -16.5950 -16.5913 -16.3839 -16.3817 -16.3782 -16.3536 -16.3519 -16.3479
   -16.3459 -16.3441 -16.3360 -16.3307 -16.3301 -16.3156 -16.2421 -16.2345
   -16.2325 -15.5572 -15.5497 -15.5290 -15.4605 -15.2890 -15.1027 -15.0966
   -15.0847 -14.9446 -14.9319 -14.8231 -14.8181 -14.8054 -14.4680 -14.4653
   -14.4591 -14.3491 -14.3443 -13.8968 -12.3300 -12.2535 -11.9758 -11.6919
   -11.6902 -11.6707 -11.3232 -10.5656 -10.5173 -10.0223 -10.0155 -10.0051
    -9.9644  -9.3083  -9.2784  -8.9238  -8.8781  -8.6501  -8.6451  -8.6300
    -8.5147  -8.0580  -7.9853  -7.9511  -7.9359  -7.8993  -7.8756  -7.8443
    -7.6515  -7.6375  -7.6287  -7.4185  -7.3684  -7.3595  -7.2907  -7.2736
    -7.2622  -7.1734  -6.9307  -6.8282  -6.7368  -6.7271  -6.7156  -6.6048
    -6.5770  -6.5703  -6.4982  -6.2125  -5.9356  -5.7994  -5.7253  -5.7230
    -5.5861  -5.4958  -5.4877  -5.4297  -5.3302  -5.2685  -5.2316  -5.1769
    -5.1719  -5.1552  -5.1072  -5.0767  -5.0606  -5.0133  -4.9677  -4.9275
    -4.9189  -4.7609  -4.7431  -4.7374  -4.6342  -4.5999  -4.4618  -4.4513
    -4.4334  -4.3136  -4.3058  -4.2813  -4.1083  -4.0861  -4.0589  -4.0358
    -4.0159  -3.9952  -3.9618  -3.8933  -3.8846  -3.7863  -3.5829  -3.5795
    -3.5747  -3.4339  -3.3926  -3.3867  -3.3801  -3.2794  -3.2653  -3.2462
    -3.2238  -3.1646  -3.1613  -3.1462  -3.0894  -3.0849  -3.0662  -3.0217
    -3.0032  -2.8917  -2.8695  -2.7185  -2.6554  -2.6419  -2.5904  -2.5140
    -2.5042  -2.3518  -2.3172  -2.2939  -0.5400  -0.1361  -0.1189  -0.0684
     0.4104   0.6836   0.6918   0.7408   0.7658   0.7850   0.8091   1.0224
     1.0458   1.0519   1.1947   1.2017   1.2374   1.2580   1.2735   1.3237
     1.5152   1.6396   1.6542   1.6784   1.7091   1.7301   1.8156   1.9984
     2.0133   2.0424   2.0515   2.3983   2.4280   2.4867   2.5364   2.5412
     2.7213   2.7805   2.8176   2.8543   2.9133   2.9934   3.1023   3.1568
     3.1970   3.2397   3.2569   3.2846   3.3043   3.3561   3.4255   3.4603
     3.5176   3.5708   3.6115   3.6677   3.6941   3.7365   3.8067   3.8404
     3.9154   3.9826   4.0842   4.1164   4.1718   4.2320   4.2874   4.3065
     4.3269   4.3853   4.4011   4.4630

          k = 0.2500 0.4330-0.2308 ( 96066 PWs)   bands (ev):

  -113.4891-113.4844-113.4802-113.2969 -70.9625 -70.9579 -70.9572 -70.9537
   -70.9520 -70.9509 -70.8125 -70.8085 -70.7935 -70.7863 -70.7829 -70.5147
   -25.1437 -22.8643 -20.4166 -18.4177 -17.9769 -17.9227 -17.9127 -17.8564
   -17.0646 -17.0617 -17.0545 -17.0494 -16.7882 -16.6411 -16.6348 -16.6235
   -16.6199 -16.5172 -16.4217 -16.4176 -16.3529 -16.3503 -16.3493 -16.3476
   -16.3449 -16.3419 -16.3395 -16.3354 -16.3305 -16.3074 -16.2825 -16.2799
   -16.1774 -15.5194 -15.4607 -15.3753 -15.3669 -15.2950 -15.2448 -15.1625
   -15.0964 -15.0799 -15.0122 -14.8122 -14.6869 -14.6782 -14.5287 -14.5196
   -14.4434 -14.4382 -14.3910 -13.8967 -12.2599 -12.0547 -11.9753 -11.8327
   -11.8156 -11.5861 -11.3236 -10.5431 -10.3434 -10.1436 -10.1329  -9.9792
    -9.8642  -9.3083  -9.2785  -8.8782  -8.8164  -8.6937  -8.6779  -8.5179
    -8.4330  -8.1174  -8.0838  -8.0571  -8.0428  -7.9161  -7.8801  -7.8414
    -7.7029  -7.6612  -7.6343  -7.6138  -7.5285  -7.5166  -7.4845  -7.2917
    -7.1778  -6.9989  -6.9517  -6.9250  -6.8261  -6.7819  -6.7701  -6.4032
    -6.3390  -6.3060  -6.2797  -6.2010  -5.9333  -5.6977  -5.5836  -5.5740
    -5.5330  -5.4968  -5.4487  -5.4116  -5.3366  -5.2848  -5.2529  -5.1812
    -5.1384  -5.1204  -5.1112  -5.0801  -5.0544  -5.0008  -4.9802  -4.9524
    -4.9102  -4.8160  -4.7909  -4.7393  -4.6974  -4.6601  -4.5647  -4.5283
    -4.5114  -4.3138  -4.2823  -4.2678  -4.1980  -4.0340  -3.9965  -3.9636
    -3.9372  -3.8945  -3.8760  -3.8178  -3.7925  -3.6847  -3.6233  -3.6066
    -3.5789  -3.5064  -3.3923  -3.3485  -3.3140  -3.2987  -3.2754  -3.2524
    -3.2301  -3.1858  -3.1668  -3.1412  -3.1186  -3.0900  -3.0456  -3.0322
    -2.9935  -2.9515  -2.8809  -2.8255  -2.8042  -2.7743  -2.6791  -2.6418
    -2.5973  -2.5043  -2.3943  -2.2852  -0.2471  -0.1469  -0.0866  -0.0557
     0.3902   0.6310   0.6524   0.6763   0.6838   0.9655   1.0654   1.0794
     1.1200   1.1532   1.1706   1.1869   1.2422   1.2895   1.3076   1.3444
     1.3541   1.5483   1.6401   1.6601   1.6774   1.7132   1.7294   1.9273
     2.1298   2.2118   2.2362   2.3080   2.3880   2.3974   2.4533   2.5757
     2.6425   2.6650   2.7550   2.7880   2.8261   2.9057   3.0857   3.1456
     3.1841   3.2397   3.2799   3.3279   3.3587   3.4058   3.4263   3.5077
     3.5483   3.6149   3.6631   3.7149   3.7265   3.7465   3.8376   3.8809
     3.9275   3.9814   4.0541   4.0708   4.1497   4.1723   4.2417   4.2967
     4.3487   4.4016   4.4365   4.4914

          k = 0.2500 0.6255-0.2308 ( 96114 PWs)   bands (ev):

  -113.4891-113.4844-113.4802-113.2969 -70.9625 -70.9579 -70.9572 -70.9537
   -70.9520 -70.9509 -70.8125 -70.8085 -70.7935 -70.7863 -70.7829 -70.5147
   -25.1437 -22.8643 -20.4166 -18.4177 -17.9589 -17.9374 -17.9190 -17.8545
   -17.0644 -17.0591 -17.0561 -17.0497 -16.7881 -16.6457 -16.6300 -16.6280
   -16.6235 -16.4831 -16.4505 -16.4194 -16.3533 -16.3493 -16.3490 -16.3468
   -16.3456 -16.3411 -16.3393 -16.3364 -16.3307 -16.3022 -16.2944 -16.2818
   -16.1702 -15.5143 -15.4606 -15.3562 -15.3115 -15.2911 -15.2595 -15.2321
   -15.0961 -15.0671 -15.0304 -14.8098 -14.6761 -14.6262 -14.5796 -14.5310
   -14.4424 -14.4248 -14.4061 -13.8966 -12.2591 -11.9859 -11.9686 -11.8971
   -11.8304 -11.5754 -11.3230 -10.5434 -10.2765 -10.2104 -10.1385  -9.9795
    -9.8492  -9.3082  -9.2787  -8.8789  -8.7760  -8.7341  -8.6800  -8.5180
    -8.4002  -8.1219  -8.0968  -8.0752  -8.0495  -7.9119  -7.8837  -7.8368
    -7.6994  -7.6641  -7.6479  -7.6073  -7.5589  -7.5321  -7.5127  -7.2930
    -7.1780  -6.9709  -6.9299  -6.9150  -6.8430  -6.8205  -6.7779  -6.3910
    -6.3202  -6.2826  -6.2538  -6.2006  -5.9353  -5.6853  -5.5739  -5.5321
    -5.5161  -5.4805  -5.4537  -5.4194  -5.3647  -5.2910  -5.2459  -5.1850
    -5.1358  -5.1211  -5.1143  -5.0835  -5.0427  -5.0032  -4.9713  -4.9479
    -4.9079  -4.8303  -4.7919  -4.7354  -4.7117  -4.6633  -4.5884  -4.5480
    -4.5097  -4.3059  -4.2687  -4.2487  -4.2098  -4.0224  -3.9932  -3.9694
    -3.9305  -3.8855  -3.8660  -3.8064  -3.7778  -3.6852  -3.6451  -3.6289
    -3.5867  -3.5286  -3.3922  -3.3371  -3.3183  -3.2990  -3.2786  -3.2464
    -3.2229  -3.1951  -3.1620  -3.1319  -3.1162  -3.0985  -3.0526  -3.0060
    -2.9775  -2.9587  -2.8953  -2.8565  -2.8230  -2.8010  -2.6634  -2.6238
    -2.5907  -2.5499  -2.3533  -2.3130  -0.2584  -0.1044  -0.0946  -0.0596
     0.3518   0.6281   0.6414   0.6614   0.6821   0.9894   1.0780   1.1013
     1.1179   1.1482   1.1824   1.2075   1.2198   1.2919   1.3137   1.3534
     1.3925   1.4986   1.6280   1.6702   1.6994   1.7083   1.7196   1.9015
     2.1440   2.2728   2.2995   2.3195   2.3767   2.4000   2.4291   2.5449
     2.5934   2.7030   2.7237   2.7604   2.8166   2.8792   3.0934   3.1474
     3.2012   3.2564   3.3099   3.3462   3.3746   3.4226   3.4801   3.5144
     3.5544   3.5834   3.6199   3.6721   3.7125   3.7714   3.8360   3.9160
     3.9459   3.9794   4.0306   4.0667   4.1284   4.1510   4.2296   4.3111
     4.3899   4.4036   4.4405   4.4775

          k = 0.2500-0.3368-0.2308 ( 96066 PWs)   bands (ev):

  -113.4891-113.4844-113.4802-113.2969 -70.9625 -70.9579 -70.9572 -70.9537
   -70.9520 -70.9509 -70.8125 -70.8085 -70.7935 -70.7863 -70.7829 -70.5147
   -25.1437 -22.8643 -20.4166 -18.4177 -17.9934 -17.9129 -17.9003 -17.8606
   -17.0678 -17.0612 -17.0556 -17.0471 -16.7882 -16.6364 -16.6295 -16.6212
   -16.6141 -16.5500 -16.4175 -16.3960 -16.3577 -16.3515 -16.3499 -16.3471
   -16.3446 -16.3423 -16.3385 -16.3350 -16.3311 -16.3104 -16.2787 -16.2645
   -16.1922 -15.5246 -15.4607 -15.4284 -15.3984 -15.2898 -15.2167 -15.1279
   -15.0982 -15.0731 -14.9837 -14.8106 -14.7242 -14.7016 -14.5126 -14.4759
   -14.4585 -14.4405 -14.3790 -13.8967 -12.2597 -12.1256 -11.9758 -11.8119
   -11.7587 -11.6080 -11.3228 -10.5454 -10.3956 -10.1253 -10.0797  -9.9771
    -9.8972  -9.3082  -9.2787  -8.8818  -8.8422  -8.6904  -8.6511  -8.5233
    -8.4817  -8.0950  -8.0669  -8.0438  -8.0163  -7.9504  -7.8683  -7.7822
    -7.7448  -7.6709  -7.6357  -7.5803  -7.4990  -7.4720  -7.4461  -7.2904
    -7.1770  -7.0763  -6.9332  -6.8992  -6.8263  -6.7664  -6.7473  -6.4250
    -6.3723  -6.3628  -6.3163  -6.2066  -5.9356  -5.7044  -5.6358  -5.5899
    -5.5737  -5.4814  -5.4537  -5.3875  -5.3283  -5.2834  -5.2384  -5.1907
    -5.1444  -5.1364  -5.1150  -5.0924  -5.0482  -5.0027  -4.9693  -4.9565
    -4.9269  -4.7960  -4.7696  -4.7529  -4.6857  -4.6337  -4.5593  -4.5011
    -4.4706  -4.3131  -4.3071  -4.2866  -4.1848  -4.0441  -4.0094  -3.9737
    -3.9464  -3.9214  -3.8907  -3.8334  -3.8127  -3.6915  -3.5986  -3.5897
    -3.5547  -3.4658  -3.3923  -3.3521  -3.3322  -3.3086  -3.2851  -3.2463
    -3.2216  -3.1905  -3.1627  -3.1520  -3.1255  -3.0865  -3.0416  -3.0238
    -3.0089  -2.9579  -2.8943  -2.7988  -2.7589  -2.7288  -2.6831  -2.6322
    -2.5834  -2.4624  -2.4121  -2.3098  -0.2347  -0.2000  -0.0986  -0.0376
     0.4443   0.6163   0.6379   0.7085   0.7322   0.9851   0.9994   1.0436
     1.1106   1.1406   1.1546   1.1854   1.2136   1.2543   1.3114   1.3442
     1.4267   1.5432   1.6387   1.6587   1.6825   1.7023   1.7729   1.9599
     2.0835   2.1351   2.1757   2.3194   2.3898   2.4056   2.4634   2.5660
     2.6465   2.7168   2.7838   2.8179   2.8565   2.9325   3.0695   3.1222
     3.1754   3.2141   3.2312   3.3341   3.3581   3.3946   3.4456   3.4834
     3.5415   3.5823   3.6697   3.7253   3.7737   3.8024   3.8554   3.8751
     3.9194   3.9738   4.0542   4.1060   4.1642   4.1868   4.2271   4.2914
     4.3465   4.4067   4.4488   4.5079

          k = 0.2500-0.1443-0.2308 ( 96098 PWs)   bands (ev):

  -113.4891-113.4844-113.4802-113.2969 -70.9625 -70.9579 -70.9572 -70.9537
   -70.9520 -70.9509 -70.8125 -70.8085 -70.7935 -70.7863 -70.7829 -70.5147
   -25.1437 -22.8643 -20.4166 -18.4177 -18.0160 -17.8992 -17.8783 -17.8702
   -17.0713 -17.0635 -17.0597 -17.0398 -16.7883 -16.6333 -16.6169 -16.6148
   -16.6020 -16.5950 -16.4049 -16.3735 -16.3713 -16.3529 -16.3508 -16.3477
   -16.3447 -16.3434 -16.3376 -16.3322 -16.3314 -16.3136 -16.2671 -16.2309
   -16.2265 -15.5275 -15.5108 -15.4610 -15.4574 -15.2893 -15.1491 -15.1328
   -15.0726 -15.0228 -14.9545 -14.8034 -14.7934 -14.7416 -14.4805 -14.4767
   -14.4489 -14.4086 -14.3614 -13.8967 -12.2657 -12.2222 -11.9758 -11.7680
   -11.6797 -11.6598 -11.3231 -10.5495 -10.4676 -10.0882 -10.0059  -9.9828
    -9.9574  -9.3083  -9.2785  -8.8955  -8.8705  -8.6805  -8.6033  -8.5927
    -8.5125  -8.0626  -8.0422  -8.0009  -7.9639  -7.9562  -7.8696  -7.8082
    -7.7082  -7.6644  -7.6439  -7.4846  -7.4558  -7.4094  -7.3759  -7.2857
    -7.1811  -7.1737  -6.9302  -6.8294  -6.7888  -6.7752  -6.7403  -6.4935
    -6.4590  -6.4443  -6.3931  -6.2096  -5.9356  -5.7476  -5.6776  -5.6599
    -5.5826  -5.4957  -5.4699  -5.3930  -5.3273  -5.2706  -5.2326  -5.1878
    -5.1621  -5.1426  -5.1101  -5.0902  -5.0456  -5.0088  -4.9763  -4.9521
    -4.9218  -4.7787  -4.7527  -4.7302  -4.6767  -4.6212  -4.5042  -4.4751
    -4.4365  -4.3302  -4.3129  -4.2983  -4.1665  -4.0627  -4.0395  -3.9869
    -3.9692  -3.9603  -3.9222  -3.8642  -3.8410  -3.7276  -3.5766  -3.5727
    -3.5564  -3.3966  -3.3908  -3.3674  -3.3547  -3.3144  -3.2654  -3.2518
    -3.2051  -3.1929  -3.1615  -3.1502  -3.1078  -3.0974  -3.0594  -3.0114
    -2.9971  -2.9803  -2.9218  -2.7557  -2.7039  -2.6590  -2.6457  -2.5542
    -2.5155  -2.4871  -2.3968  -2.3067  -0.3444  -0.1641  -0.1380  -0.0287
     0.5379   0.5914   0.6047   0.7489   0.8376   0.8624   0.9348   1.0027
     1.0387   1.1271   1.1587   1.1790   1.2080   1.2463   1.2921   1.3302
     1.5286   1.5755   1.6250   1.6483   1.7013   1.7054   1.7980   2.0001
     2.0197   2.0547   2.1083   2.3422   2.4178   2.4457   2.4753   2.5719
     2.6940   2.7510   2.8196   2.8520   2.9114   2.9610   3.0750   3.1210
     3.1515   3.1963   3.2254   3.2674   3.2941   3.3774   3.4516   3.4837
     3.5337   3.6136   3.6690   3.6911   3.7742   3.8121   3.8392   3.8834
     3.9358   3.9788   4.0845   4.1506   4.1730   4.1896   4.2337   4.2835
     4.3125   4.3535   4.4101   4.4564

          k = 0.4167 0.7217-0.2308 ( 96084 PWs)   bands (ev):

  -113.4891-113.4844-113.4802-113.2969 -70.9625 -70.9579 -70.9572 -70.9537
   -70.9520 -70.9509 -70.8125 -70.8085 -70.7935 -70.7863 -70.7829 -70.5147
   -25.1437 -22.8643 -20.4166 -18.4177 -17.9596 -17.9484 -17.9034 -17.8581
   -17.0629 -17.0598 -17.0573 -17.0497 -16.7882 -16.6437 -16.6306 -16.6243
   -16.6233 -16.4820 -16.4772 -16.3954 -16.3539 -16.3513 -16.3485 -16.3467
   -16.3453 -16.3409 -16.3401 -16.3360 -16.3315 -16.3023 -16.2995 -16.2662
   -16.1811 -15.5095 -15.4606 -15.4017 -15.2946 -15.2623 -15.2548 -15.2401
   -15.1291 -15.0454 -15.0182 -14.8041 -14.7124 -14.5906 -14.5827 -14.5240
   -14.4605 -14.4152 -14.4066 -13.8966 -12.2591 -11.9842 -11.9698 -11.9514
   -11.7654 -11.5898 -11.3232 -10.5442 -10.2711 -10.2574 -10.0790  -9.9794
    -9.8690  -9.3082  -9.2787  -8.8798  -8.7817  -8.7544  -8.6397  -8.5179
    -8.4314  -8.1117  -8.0881  -8.0720  -8.0491  -7.9691  -7.8684  -7.7871
    -7.6855  -7.6735  -7.6600  -7.6091  -7.5694  -7.5105  -7.4889  -7.2938
    -7.1776  -6.9438  -6.9235  -6.9184  -6.9038  -6.8244  -6.7419  -6.3975
    -6.3541  -6.2836  -6.2436  -6.2045  -5.9357  -5.6917  -5.6048  -5.5564
    -5.4871  -5.4773  -5.4509  -5.4261  -5.3549  -5.2907  -5.2410  -5.1812
    -5.1429  -5.1275  -5.1086  -5.0732  -5.0504  -5.0033  -4.9862  -4.9605
    -4.9046  -4.8305  -4.7791  -4.7324  -4.7133  -4.6388  -4.5916  -4.5355
    -4.4961  -4.3086  -4.2739  -4.2628  -4.2146  -4.0260  -3.9879  -3.9556
    -3.9430  -3.8970  -3.8667  -3.8058  -3.7752  -3.7023  -3.6568  -3.6190
    -3.5842  -3.5131  -3.3923  -3.3331  -3.3123  -3.2926  -3.2734  -3.2458
    -3.2243  -3.2014  -3.1716  -3.1419  -3.1164  -3.1008  -3.0532  -3.0016
    -2.9804  -2.9434  -2.8920  -2.8511  -2.8060  -2.7765  -2.6655  -2.6189
    -2.5953  -2.5597  -2.3827  -2.3161  -0.2484  -0.1252  -0.0879  -0.0588
     0.3843   0.5963   0.6732   0.6835   0.6900   0.9999   1.0253   1.0967
     1.1052   1.1393   1.1867   1.1989   1.2381   1.2737   1.3284   1.3634
     1.4372   1.5154   1.6046   1.6543   1.6742   1.7069   1.7433   1.9272
     2.1258   2.1986   2.2813   2.3121   2.3995   2.4040   2.4432   2.5298
     2.5717   2.6825   2.7225   2.7894   2.8232   2.9030   3.0880   3.1130
     3.2110   3.2775   3.3030   3.3499   3.3899   3.4537   3.4843   3.4993
     3.5081   3.5513   3.5634   3.6650   3.7780   3.8100   3.8448   3.9252
     3.9697   3.9998   4.0373   4.0659   4.1486   4.1900   4.2055   4.3105
     4.3552   4.4025   4.4362   4.4816

          k = 0.4167-0.2406-0.2308 ( 96042 PWs)   bands (ev):

  -113.4891-113.4844-113.4802-113.2969 -70.9625 -70.9579 -70.9572 -70.9537
   -70.9520 -70.9509 -70.8125 -70.8085 -70.7935 -70.7863 -70.7829 -70.5147
   -25.1437 -22.8643 -20.4166 -18.4177 -17.9811 -17.9371 -17.8790 -17.8710
   -17.0654 -17.0585 -17.0570 -17.0501 -16.7882 -16.6344 -16.6320 -16.6257
   -16.6154 -16.5289 -16.4566 -16.3675 -16.3647 -16.3521 -16.3490 -16.3471
   -16.3448 -16.3416 -16.3393 -16.3346 -16.3324 -16.3081 -16.2944 -16.2249
   -16.2201 -15.4909 -15.4728 -15.4601 -15.3225 -15.2900 -15.2034 -15.1826
   -15.1541 -15.0409 -14.9906 -14.7820 -14.7735 -14.6314 -14.5144 -14.4960
   -14.4882 -14.4234 -14.3901 -13.8966 -12.2593 -12.0738 -11.9761 -11.9041
   -11.6691 -11.6487 -11.3231 -10.5452 -10.3545 -10.2136  -9.9955  -9.9598
    -9.9432  -9.3082  -9.2787  -8.8812  -8.8220  -8.7419  -8.5589  -8.5407
    -8.5044  -8.0873  -8.0633  -8.0497  -8.0385  -8.0202  -7.8694  -7.7331
    -7.7103  -7.6737  -7.6465  -7.5946  -7.5671  -7.4710  -7.4486  -7.2928
    -7.1770  -7.0319  -6.9304  -6.8662  -6.8289  -6.8060  -6.7958  -6.4252
    -6.3914  -6.3066  -6.2665  -6.2055  -5.9358  -5.6976  -5.6381  -5.5944
    -5.5270  -5.4770  -5.4490  -5.3969  -5.3386  -5.2839  -5.2403  -5.1802
    -5.1524  -5.1333  -5.1079  -5.0796  -5.0413  -5.0168  -4.9921  -4.9666
    -4.9112  -4.8211  -4.7609  -4.7287  -4.7021  -4.6170  -4.5701  -4.5097
    -4.4795  -4.3194  -4.2977  -4.2787  -4.2150  -4.0175  -4.0088  -3.9630
    -3.9484  -3.9140  -3.8787  -3.8203  -3.7894  -3.6996  -3.6404  -3.5928
    -3.5729  -3.4884  -3.3924  -3.3306  -3.3170  -3.2884  -3.2734  -3.2391
    -3.2232  -3.1995  -3.1751  -3.1493  -3.1269  -3.0966  -3.0539  -3.0171
    -2.9938  -2.9435  -2.8744  -2.8278  -2.7622  -2.7528  -2.6796  -2.6367
    -2.5367  -2.5028  -2.4890  -2.3131  -0.1988  -0.1807  -0.1331  -0.0277
     0.4984   0.5142   0.6627   0.7258   0.8218   0.8454   1.0412   1.0677
     1.0849   1.1389   1.1742   1.1890   1.2289   1.2590   1.3430   1.4249
     1.4756   1.5149   1.5498   1.6540   1.6922   1.7021   1.7439   2.0241
     2.0415   2.1021   2.2131   2.2941   2.4021   2.4099   2.4574   2.5474
     2.5881   2.7021   2.7216   2.8273   2.8510   2.9633   3.0456   3.0854
     3.2116   3.2503   3.2560   3.3039   3.3642   3.4291   3.4686   3.5007
     3.5160   3.5552   3.5977   3.6560   3.7557   3.8327   3.8708   3.9371
     4.0224   4.0408   4.0903   4.1240   4.1564   4.1889   4.2348   4.2827
     4.3320   4.3912   4.4117   4.4471

          k =-0.0833 0.1443 0.2308 ( 95992 PWs)   bands (ev):

  -113.4891-113.4844-113.4802-113.2969 -70.9625 -70.9579 -70.9572 -70.9537
   -70.9520 -70.9509 -70.8125 -70.8085 -70.7935 -70.7863 -70.7829 -70.5147
   -25.1437 -22.8643 -20.4166 -18.4177 -18.0307 -17.8817 -17.8796 -17.8686
   -17.0731 -17.0673 -17.0630 -17.0327 -16.7883 -16.6384 -16.6241 -16.6020
   -16.6003 -16.5954 -16.3872 -16.3811 -16.3759 -16.3534 -16.3517 -16.3479
   -16.3453 -16.3439 -16.3365 -16.3309 -16.3306 -16.3151 -16.2475 -16.2394
   -16.2266 -15.5514 -15.5321 -15.5154 -15.4604 -15.2891 -15.1208 -15.0956
   -15.0875 -14.9647 -14.9383 -14.8191 -14.8067 -14.7917 -14.4729 -14.4657
   -14.4576 -14.3648 -14.3486 -13.8968 -12.3065 -12.2517 -11.9758 -11.7021
   -11.6993 -11.6649 -11.3230 -10.5585 -10.5077 -10.0367 -10.0214  -9.9871
    -9.9679  -9.3083  -9.2785  -8.9155  -8.8774  -8.6532  -8.6426  -8.6153
    -8.5142  -8.0592  -7.9995  -7.9662  -7.9442  -7.9146  -7.8607  -7.8494
    -7.6626  -7.6523  -7.6375  -7.4354  -7.3901  -7.3749  -7.3189  -7.2769
    -7.2402  -7.1740  -6.9303  -6.8279  -6.7730  -6.7303  -6.7160  -6.5679
    -6.5431  -6.5299  -6.4661  -6.2121  -5.9354  -5.7859  -5.7120  -5.7050
    -5.5849  -5.4962  -5.4828  -5.4185  -5.3268  -5.2686  -5.2319  -5.1829
    -5.1669  -5.1545  -5.1092  -5.0841  -5.0546  -5.0070  -4.9712  -4.9312
    -4.9235  -4.7624  -4.7488  -4.7339  -4.6427  -4.6153  -4.4736  -4.4498
    -4.4334  -4.3181  -4.3118  -4.2946  -4.1325  -4.0763  -4.0578  -4.0205
    -3.9958  -3.9717  -3.9567  -3.8910  -3.8722  -3.7637  -3.5819  -3.5736
    -3.5660  -3.4238  -3.3924  -3.3772  -3.3716  -3.2845  -3.2627  -3.2494
    -3.2183  -3.1726  -3.1580  -3.1392  -3.1062  -3.0797  -3.0639  -3.0309
    -3.0011  -2.9332  -2.8887  -2.7281  -2.6735  -2.6404  -2.5934  -2.5361
    -2.5032  -2.4054  -2.3367  -2.2950  -0.4817  -0.1526  -0.1061  -0.0621
     0.4503   0.6335   0.7007   0.7300   0.7983   0.8089   0.8429   1.0124
     1.0544   1.0688   1.1826   1.1976   1.2269   1.2505   1.2661   1.3264
     1.5173   1.6246   1.6418   1.6706   1.7036   1.7243   1.8141   1.9969
     2.0214   2.0441   2.0572   2.3719   2.4501   2.4729   2.5021   2.5405
     2.7166   2.7941   2.8310   2.8615   2.9130   2.9749   3.1100   3.1438
     3.1737   3.2113   3.2431   3.2715   3.3065   3.3467   3.4231   3.4704
     3.5157   3.5764   3.6439   3.6948   3.7154   3.7587   3.8131   3.8515
     3.9403   4.0147   4.0973   4.1082   4.1456   4.1803   4.2368   4.3324
     4.3698   4.3865   4.4272   4.4495

          k = 0.1667 0.0000-0.2308 ( 95992 PWs)   bands (ev):

  -113.4891-113.4844-113.4802-113.2969 -70.9625 -70.9579 -70.9572 -70.9537
   -70.9520 -70.9509 -70.8125 -70.8085 -70.7935 -70.7863 -70.7829 -70.5147
   -25.1437 -22.8643 -20.4166 -18.4177 -18.0307 -17.8828 -17.8781 -17.8691
   -17.0731 -17.0674 -17.0627 -17.0329 -16.7883 -16.6367 -16.6258 -16.6046
   -16.5978 -16.5957 -16.3870 -16.3836 -16.3731 -16.3533 -16.3516 -16.3477
   -16.3459 -16.3439 -16.3364 -16.3313 -16.3302 -16.3152 -16.2442 -16.2417
   -16.2275 -15.5500 -15.5349 -15.5144 -15.4604 -15.2892 -15.1180 -15.0967
   -15.0890 -14.9630 -14.9400 -14.8212 -14.8020 -14.7942 -14.4732 -14.4631
   -14.4598 -14.3658 -14.3477 -13.8968 -12.3070 -12.2513 -11.9758 -11.7038
   -11.6997 -11.6625 -11.3234 -10.5583 -10.5078 -10.0275 -10.0222 -10.0048
    -9.9586  -9.3083  -9.2784  -8.9157  -8.8770  -8.6533  -8.6411  -8.6158
    -8.5147  -8.0585  -8.0038  -7.9684  -7.9385  -7.9108  -7.8810  -7.8332
    -7.6715  -7.6561  -7.6246  -7.4331  -7.3894  -7.3777  -7.3163  -7.2788
    -7.2407  -7.1741  -6.9304  -6.8285  -6.7752  -6.7317  -6.7125  -6.5615
    -6.5474  -6.5290  -6.4674  -6.2115  -5.9355  -5.7862  -5.7107  -5.7083
    -5.5809  -5.4982  -5.4863  -5.4182  -5.3303  -5.2687  -5.2300  -5.1769
    -5.1716  -5.1510  -5.1082  -5.0769  -5.0571  -5.0148  -4.9737  -4.9323
    -4.9176  -4.7685  -4.7448  -4.7324  -4.6501  -4.6068  -4.4728  -4.4599
    -4.4275  -4.3212  -4.3105  -4.2916  -4.1298  -4.0832  -4.0548  -4.0173
    -4.0003  -3.9778  -3.9508  -3.8856  -3.8732  -3.7673  -3.5762  -3.5740
    -3.5717  -3.4242  -3.3920  -3.3823  -3.3652  -3.2825  -3.2661  -3.2502
    -3.2216  -3.1696  -3.1605  -3.1346  -3.1075  -3.0829  -3.0615  -3.0357
    -2.9933  -2.9372  -2.8837  -2.7270  -2.6657  -2.6427  -2.6002  -2.5455
    -2.4906  -2.4040  -2.3386  -2.2968  -0.4816  -0.1450  -0.1098  -0.0671
     0.4493   0.6434   0.6984   0.7260   0.7957   0.8116   0.8405   1.0133
     1.0542   1.0621   1.1804   1.2012   1.2296   1.2490   1.2683   1.3240
     1.5192   1.6391   1.6433   1.6616   1.7027   1.7241   1.8085   1.9899
     2.0188   2.0512   2.0570   2.3781   2.4326   2.4855   2.5100   2.5396
     2.7195   2.7761   2.8350   2.8628   2.9110   2.9814   3.1000   3.1343
     3.1961   3.2179   3.2359   3.2679   3.3032   3.3495   3.4222   3.4700
     3.5240   3.5904   3.6284   3.6880   3.7426   3.7755   3.8152   3.8255
     3.9058   4.0224   4.0933   4.1360   4.1575   4.1944   4.2182   4.3076
     4.3564   4.3822   4.4163   4.4557

          k =-0.0833 0.3368 0.2308 ( 96032 PWs)   bands (ev):

  -113.4891-113.4844-113.4802-113.2969 -70.9625 -70.9579 -70.9572 -70.9537
   -70.9520 -70.9509 -70.8125 -70.8085 -70.7935 -70.7863 -70.7829 -70.5147
   -25.1437 -22.8643 -20.4166 -18.4177 -18.0068 -17.9078 -17.8846 -17.8661
   -17.0685 -17.0637 -17.0586 -17.0425 -16.7882 -16.6369 -16.6221 -16.6151
   -16.6099 -16.5750 -16.4141 -16.3795 -16.3645 -16.3521 -16.3505 -16.3478
   -16.3444 -16.3427 -16.3381 -16.3331 -16.3311 -16.3125 -16.2750 -16.2440
   -16.2099 -15.5244 -15.4835 -15.4604 -15.4260 -15.2897 -15.1832 -15.1194
   -15.0816 -15.0531 -14.9678 -14.8054 -14.7761 -14.7143 -14.4961 -14.4697
   -14.4444 -14.4359 -14.3672 -13.8967 -12.2614 -12.1831 -11.9758 -11.7923
   -11.7067 -11.6371 -11.3228 -10.5464 -10.4403 -10.1198 -10.0176  -9.9762
    -9.9372  -9.3082  -9.2787  -8.8840  -8.8658  -8.6928  -8.6130  -8.5513
    -8.5102  -8.0746  -8.0502  -8.0322  -7.9849  -7.9482  -7.8669  -7.7882
    -7.7457  -7.6660  -7.6411  -7.5233  -7.4810  -7.4379  -7.4075  -7.2866
    -7.1763  -7.1357  -6.9302  -6.8481  -6.8244  -6.7611  -6.7425  -6.4722
    -6.4327  -6.3931  -6.3458  -6.2088  -5.9351  -5.7318  -5.6422  -5.6345
    -5.5826  -5.4959  -5.4632  -5.3878  -5.3195  -5.2738  -5.2380  -5.1990
    -5.1498  -5.1391  -5.1184  -5.0928  -5.0396  -5.0076  -4.9756  -4.9527
    -4.9248  -4.7787  -4.7657  -4.7362  -4.6665  -4.6485  -4.5196  -4.4884
    -4.4570  -4.3211  -4.3130  -4.2999  -4.1786  -4.0561  -4.0271  -3.9793
    -3.9577  -3.9296  -3.9134  -3.8561  -3.8244  -3.7029  -3.5859  -3.5670
    -3.5607  -3.4059  -3.3920  -3.3635  -3.3524  -3.3120  -3.2674  -3.2349
    -3.2129  -3.2030  -3.1720  -3.1446  -3.1244  -3.0907  -3.0584  -3.0221
    -2.9890  -2.9794  -2.9251  -2.7711  -2.7489  -2.6717  -2.6339  -2.6087
    -2.5730  -2.4592  -2.4167  -2.3015  -0.2803  -0.1992  -0.1075  -0.0334
     0.5105   0.5802   0.6366   0.7176   0.7852   0.9257   0.9792   1.0112
     1.0786   1.1388   1.1654   1.1869   1.2075   1.2366   1.2832   1.3408
     1.5203   1.5458   1.5945   1.6507   1.6968   1.7159   1.7824   1.9982
     2.0457   2.0881   2.1202   2.3209   2.3866   2.4343   2.4808   2.5857
     2.6586   2.7442   2.8264   2.8452   2.8830   2.9580   3.0585   3.1275
     3.1654   3.1929   3.2138   3.2868   3.3061   3.3544   3.4244   3.4817
     3.5293   3.5949   3.6781   3.7276   3.7755   3.8108   3.8369   3.9060
     3.9254   4.0209   4.0687   4.1288   4.1809   4.2084   4.2447   4.2706
     4.3396   4.3579   4.4224   4.4847

          k =-0.2500 0.2406-0.2308 ( 96032 PWs)   bands (ev):

  -113.4891-113.4844-113.4802-113.2969 -70.9625 -70.9579 -70.9572 -70.9537
   -70.9520 -70.9509 -70.8125 -70.8085 -70.7935 -70.7863 -70.7829 -70.5147
   -25.1437 -22.8643 -20.4166 -18.4177 -18.0067 -17.9067 -17.8860 -17.8660
   -17.0698 -17.0621 -17.0580 -17.0433 -16.7882 -16.6336 -16.6240 -16.6177
   -16.6071 -16.5766 -16.4124 -16.3810 -16.3638 -16.3524 -16.3504 -16.3474
   -16.3444 -16.3430 -16.3380 -16.3335 -16.3313 -16.3124 -16.2739 -16.2461
   -16.2097 -15.5272 -15.4784 -15.4603 -15.4290 -15.2894 -15.1786 -15.1335
   -15.0709 -15.0560 -14.9658 -14.8087 -14.7644 -14.7208 -14.4951 -14.4710
   -14.4448 -14.4349 -14.3691 -13.8967 -12.2613 -12.1835 -11.9758 -11.7930
   -11.7069 -11.6361 -11.3229 -10.5473 -10.4387 -10.1103 -10.0314  -9.9732
    -9.9362  -9.3082  -9.2786  -8.8869  -8.8622  -8.6883  -8.6217  -8.5512
    -8.5083  -8.0740  -8.0544  -8.0100  -7.9907  -7.9735  -7.8676  -7.7879
    -7.7111  -7.6850  -7.6443  -7.5243  -7.4790  -7.4334  -7.4070  -7.2881
    -7.1765  -7.1371  -6.9305  -6.8472  -6.8232  -6.7581  -6.7516  -6.4584
    -6.4163  -6.4066  -6.3594  -6.2086  -5.9356  -5.7256  -5.6636  -5.6279
    -5.5830  -5.4872  -5.4638  -5.3849  -5.3248  -5.2748  -5.2352  -5.1896
    -5.1568  -5.1389  -5.1151  -5.0918  -5.0476  -5.0019  -4.9718  -4.9596
    -4.9265  -4.7855  -4.7610  -4.7359  -4.6850  -4.6243  -4.5296  -4.4787
    -4.4522  -4.3254  -4.3167  -4.2934  -4.1765  -4.0516  -4.0247  -3.9789
    -3.9609  -3.9485  -3.9048  -3.8488  -3.8293  -3.7099  -3.5844  -3.5763
    -3.5509  -3.4107  -3.3922  -3.3635  -3.3491  -3.3165  -3.2732  -3.2464
    -3.2152  -3.1952  -3.1592  -3.1516  -3.1205  -3.0961  -3.0473  -3.0157
    -2.9967  -2.9716  -2.9248  -2.7742  -2.7261  -2.6785  -2.6636  -2.6057
    -2.5458  -2.4613  -2.4248  -2.3075  -0.2788  -0.1956  -0.1217  -0.0255
     0.5193   0.5801   0.6147   0.7391   0.8034   0.9122   0.9901   1.0012
     1.0583   1.1406   1.1478   1.1811   1.2037   1.2476   1.3128   1.3367
     1.5026   1.5385   1.6385   1.6498   1.6887   1.7022   1.7917   1.9867
     2.0534   2.0723   2.1325   2.3296   2.4041   2.4214   2.4716   2.5750
     2.6788   2.7258   2.8002   2.8443   2.8885   2.9614   3.0742   3.1026
     3.1606   3.2002   3.2064   3.2969   3.3231   3.3998   3.4455   3.4715
     3.5494   3.6064   3.6673   3.7059   3.7867   3.7962   3.8411   3.8963
     3.9300   4.0059   4.0634   4.1073   4.1691   4.1933   4.2543   4.2705
     4.3379   4.3652   4.4386   4.4636

          k = 0.3333 0.0962-0.2308 ( 96032 PWs)   bands (ev):

  -113.4891-113.4844-113.4802-113.2969 -70.9625 -70.9579 -70.9572 -70.9537
   -70.9520 -70.9509 -70.8125 -70.8085 -70.7935 -70.7863 -70.7829 -70.5147
   -25.1437 -22.8643 -20.4166 -18.4177 -18.0066 -17.9080 -17.8842 -17.8665
   -17.0683 -17.0637 -17.0581 -17.0429 -16.7883 -16.6347 -16.6255 -16.6144
   -16.6101 -16.5757 -16.4139 -16.3804 -16.3620 -16.3513 -16.3508 -16.3472
   -16.3456 -16.3432 -16.3382 -16.3334 -16.3306 -16.3126 -16.2733 -16.2450
   -16.2102 -15.5265 -15.4813 -15.4608 -15.4285 -15.2903 -15.1741 -15.1315
   -15.0734 -15.0519 -14.9713 -14.8109 -14.7662 -14.7189 -14.4934 -14.4720
   -14.4444 -14.4360 -14.3670 -13.8967 -12.2629 -12.1823 -11.9759 -11.7938
   -11.7062 -11.6348 -11.3240 -10.5459 -10.4402 -10.1163 -10.0203  -9.9854
    -9.9294  -9.3084  -9.2783  -8.8855  -8.8637  -8.6903  -8.6157  -8.5460
    -8.5133  -8.0715  -8.0603  -8.0183  -7.9858  -7.9739  -7.8741  -7.7794
    -7.7122  -7.6928  -7.6341  -7.5212  -7.4785  -7.4375  -7.4065  -7.2871
    -7.1765  -7.1370  -6.9299  -6.8503  -6.8266  -6.7590  -6.7497  -6.4544
    -6.4233  -6.3939  -6.3609  -6.2061  -5.9341  -5.7338  -5.6592  -5.6344
    -5.5660  -5.5023  -5.4740  -5.3886  -5.3241  -5.2696  -5.2380  -5.1819
    -5.1538  -5.1316  -5.1118  -5.0810  -5.0570  -5.0112  -4.9791  -4.9561
    -4.9186  -4.7956  -4.7608  -4.7302  -4.6875  -4.6238  -4.5248  -4.4960
    -4.4457  -4.3294  -4.3230  -4.2876  -4.1741  -4.0559  -4.0159  -3.9877
    -3.9604  -3.9453  -3.9009  -3.8426  -3.8337  -3.7131  -3.5852  -3.5762
    -3.5520  -3.4116  -3.3925  -3.3619  -3.3511  -3.3105  -3.2694  -3.2394
    -3.2242  -3.2019  -3.1537  -3.1478  -3.1249  -3.0989  -3.0447  -3.0260
    -2.9936  -2.9671  -2.9172  -2.7687  -2.7298  -2.6839  -2.6476  -2.6091
    -2.5650  -2.4616  -2.4278  -2.2910  -0.2806  -0.1876  -0.1175  -0.0387
     0.5227   0.5832   0.6201   0.7328   0.8024   0.9000   0.9877   1.0144
     1.0406   1.1301   1.1507   1.1797   1.2221   1.2441   1.3094   1.3361
     1.5130   1.5466   1.6279   1.6556   1.6737   1.7154   1.7787   1.9776
     2.0601   2.0882   2.1192   2.3254   2.4039   2.4395   2.4675   2.6088
     2.6787   2.7067   2.7876   2.8224   2.8925   2.9639   3.0831   3.0997
     3.1770   3.2106   3.2182   3.2882   3.3226   3.3566   3.4400   3.4793
     3.5570   3.6353   3.6925   3.7092   3.7418   3.7933   3.8359   3.8720
     3.9153   4.0048   4.0633   4.1220   4.1706   4.1976   4.2438   4.3016
     4.3106   4.3509   4.4256   4.4608

          k =-0.2500-0.2406 0.2308 ( 96032 PWs)   bands (ev):

  -113.4891-113.4844-113.4802-113.2969 -70.9625 -70.9579 -70.9572 -70.9537
   -70.9520 -70.9509 -70.8125 -70.8085 -70.7935 -70.7863 -70.7829 -70.5147
   -25.1437 -22.8643 -20.4166 -18.4177 -18.0067 -17.9081 -17.8844 -17.8661
   -17.0676 -17.0641 -17.0592 -17.0422 -16.7883 -16.6376 -16.6242 -16.6164
   -16.6079 -16.5741 -16.4150 -16.3804 -16.3617 -16.3516 -16.3507 -16.3472
   -16.3456 -16.3430 -16.3381 -16.3335 -16.3304 -16.3126 -16.2734 -16.2458
   -16.2089 -15.5247 -15.4850 -15.4606 -15.4262 -15.2907 -15.1779 -15.1216
   -15.0787 -15.0523 -14.9719 -14.8089 -14.7737 -14.7146 -14.4964 -14.4668
   -14.4450 -14.4369 -14.3666 -13.8967 -12.2630 -12.1819 -11.9758 -11.7943
   -11.7048 -11.6358 -11.3239 -10.5454 -10.4415 -10.1156 -10.0294  -9.9749
    -9.9311  -9.3084  -9.2783  -8.8809  -8.8694  -8.6898  -8.6141  -8.5457
    -8.5140  -8.0790  -8.0525  -8.0261  -7.9864  -7.9535  -7.8694  -7.7841
    -7.7596  -7.6591  -7.6319  -7.5158  -7.4847  -7.4391  -7.4079  -7.2870
    -7.1766  -7.1350  -6.9305  -6.8545  -6.8234  -6.7607  -6.7413  -6.4618
    -6.4402  -6.3866  -6.3473  -6.2069  -5.9333  -5.7394  -5.6529  -5.6309
    -5.5657  -5.5056  -5.4740  -5.3881  -5.3222  -5.2686  -5.2454  -5.1880
    -5.1478  -5.1317  -5.1080  -5.0835  -5.0570  -5.0083  -4.9821  -4.9603
    -4.9131  -4.7900  -4.7597  -4.7319  -4.6875  -4.6323  -4.5129  -4.4961
    -4.4604  -4.3330  -4.3102  -4.2909  -4.1787  -4.0602  -4.0247  -3.9790
    -3.9567  -3.9307  -3.9099  -3.8503  -3.8266  -3.7093  -3.5910  -3.5707
    -3.5560  -3.4073  -3.3923  -3.3588  -3.3564  -3.3050  -3.2632  -3.2318
    -3.2175  -3.1969  -3.1788  -3.1466  -3.1340  -3.0888  -3.0571  -3.0206
    -2.9842  -2.9785  -2.9196  -2.7637  -2.7440  -2.6788  -2.6286  -2.6113
    -2.5768  -2.4728  -2.4240  -2.2815  -0.2819  -0.1908  -0.1134  -0.0380
     0.5221   0.5764   0.6412   0.7182   0.7805   0.9311   0.9602   1.0089
     1.0756   1.1373   1.1642   1.1841   1.2192   1.2369   1.2868   1.3310
     1.5179   1.5459   1.6098   1.6522   1.6817   1.7276   1.7714   1.9982
     2.0496   2.0739   2.1238   2.3190   2.4073   2.4423   2.4788   2.6160
     2.6468   2.7078   2.7929   2.8384   2.9160   2.9704   3.0648   3.1254
     3.1432   3.1994   3.2362   3.2824   3.3008   3.3496   3.4264   3.5001
     3.5748   3.6027   3.6422   3.7120   3.7650   3.8034   3.8363   3.8932
     3.9499   3.9966   4.0118   4.1446   4.1685   4.2143   4.2740   4.2895
     4.3181   4.3670   4.3878   4.4598

          k = 0.3333-0.0962 0.2308 ( 96032 PWs)   bands (ev):

  -113.4891-113.4844-113.4802-113.2969 -70.9625 -70.9579 -70.9572 -70.9537
   -70.9520 -70.9509 -70.8125 -70.8085 -70.7935 -70.7863 -70.7829 -70.5147
   -25.1437 -22.8643 -20.4166 -18.4177 -18.0067 -17.9069 -17.8855 -17.8663
   -17.0697 -17.0623 -17.0577 -17.0434 -16.7883 -16.6322 -16.6246 -16.6186
   -16.6071 -16.5770 -16.4124 -16.3816 -16.3619 -16.3528 -16.3503 -16.3475
   -16.3447 -16.3431 -16.3383 -16.3330 -16.3314 -16.3124 -16.2739 -16.2446
   -16.2111 -15.5246 -15.4837 -15.4603 -15.4270 -15.2899 -15.1806 -15.1244
   -15.0801 -15.0522 -14.9665 -14.8056 -14.7721 -14.7156 -14.4949 -14.4697
   -14.4465 -14.4363 -14.3681 -13.8967 -12.2618 -12.1832 -11.9758 -11.7928
   -11.7086 -11.6341 -11.3234 -10.5471 -10.4386 -10.1108 -10.0244  -9.9861
    -9.9300  -9.3083  -9.2785  -8.8876  -8.8612  -8.6888  -8.6179  -8.5518
    -8.5110  -8.0731  -8.0541  -8.0358  -7.9866  -7.9406  -7.8728  -7.7827
    -7.7547  -7.6690  -7.6295  -7.5172  -7.4846  -7.4355  -7.4049  -7.2886
    -7.1765  -7.1380  -6.9304  -6.8469  -6.8289  -6.7621  -6.7362  -6.4696
    -6.4313  -6.3962  -6.3478  -6.2079  -5.9355  -5.7340  -5.6488  -5.6329
    -5.5792  -5.4982  -5.4626  -5.3875  -5.3298  -5.2722  -5.2360  -5.1897
    -5.1536  -5.1359  -5.1038  -5.0933  -5.0449  -5.0148  -4.9827  -4.9542
    -4.9176  -4.7864  -4.7595  -4.7370  -4.6811  -4.6266  -4.5219  -4.5001
    -4.4432  -4.3300  -4.3037  -4.2970  -4.1794  -4.0568  -4.0316  -3.9744
    -3.9583  -3.9360  -3.9117  -3.8531  -3.8233  -3.7127  -3.5859  -3.5716
    -3.5587  -3.4120  -3.3926  -3.3614  -3.3556  -3.3077  -3.2630  -3.2477
    -3.2069  -3.1992  -3.1744  -3.1490  -3.1280  -3.0842  -3.0670  -3.0217
    -2.9894  -2.9687  -2.9113  -2.7695  -2.7360  -2.6795  -2.6288  -2.6173
    -2.5643  -2.4543  -2.4288  -2.3076  -0.2783  -0.1944  -0.1198  -0.0304
     0.5172   0.5804   0.6310   0.7277   0.7853   0.9370   0.9713   0.9876
     1.0809   1.1401   1.1695   1.1853   1.2060   1.2402   1.2847   1.3320
     1.5244   1.5608   1.5979   1.6501   1.7002   1.7103   1.7752   1.9842
     2.0438   2.0779   2.1367   2.3320   2.4016   2.4287   2.4812   2.5750
     2.6874   2.6973   2.7964   2.8436   2.8977   2.9610   3.0631   3.1223
     3.1566   3.2024   3.2379   3.2762   3.3021   3.4040   3.4491   3.4857
     3.5435   3.6167   3.6399   3.7051   3.7691   3.8356   3.8575   3.8938
     3.9414   3.9837   4.0558   4.1377   4.1806   4.2071   4.2497   4.2715
     4.3091   4.3481   4.3910   4.4715

          k =-0.0833 0.5292 0.2308 ( 96076 PWs)   bands (ev):

  -113.4891-113.4844-113.4802-113.2969 -70.9625 -70.9579 -70.9572 -70.9537
   -70.9520 -70.9509 -70.8125 -70.8085 -70.7935 -70.7863 -70.7829 -70.5147
   -25.1437 -22.8643 -20.4166 -18.4177 -17.9698 -17.9470 -17.8873 -17.8645
   -17.0644 -17.0586 -17.0566 -17.0511 -16.7881 -16.6385 -16.6293 -16.6265
   -16.6220 -16.5061 -16.4709 -16.3776 -16.3587 -16.3509 -16.3492 -16.3478
   -16.3453 -16.3413 -16.3388 -16.3347 -16.3317 -16.3055 -16.2988 -16.2442
   -16.1989 -15.4983 -15.4610 -15.4439 -15.3033 -15.2740 -15.2293 -15.2017
   -15.1543 -15.0393 -15.0073 -14.7950 -14.7529 -14.6027 -14.5490 -14.5100
   -14.4766 -14.4151 -14.3961 -13.8967 -12.2592 -12.0251 -11.9763 -11.9373
   -11.7073 -11.6195 -11.3228 -10.5435 -10.3188 -10.2503 -10.0103  -9.9781
    -9.9059  -9.3082  -9.2788  -8.8792  -8.8030  -8.7605  -8.5835  -8.5198
    -8.4783  -8.1031  -8.0768  -8.0564  -8.0419  -8.0042  -7.8699  -7.7376
    -7.7014  -7.6798  -7.6333  -7.6155  -7.5925  -7.4897  -7.4671  -7.2909
    -7.1776  -6.9786  -6.9308  -6.8914  -6.8744  -6.8241  -6.7576  -6.4089
    -6.3860  -6.2868  -6.2536  -6.1995  -5.9356  -5.6912  -5.6119  -5.5676
    -5.5150  -5.4860  -5.4454  -5.4256  -5.3361  -5.2823  -5.2465  -5.1849
    -5.1409  -5.1349  -5.1208  -5.0693  -5.0367  -5.0160  -4.9822  -4.9656
    -4.8984  -4.8486  -4.7603  -4.7157  -4.7106  -4.6303  -4.5648  -4.5449
    -4.4971  -4.3143  -4.2825  -4.2772  -4.2197  -4.0212  -3.9882  -3.9698
    -3.9379  -3.9057  -3.8679  -3.8172  -3.7755  -3.6971  -3.6469  -3.6044
    -3.5748  -3.4976  -3.3920  -3.3229  -3.3094  -3.2932  -3.2683  -3.2491
    -3.2181  -3.2027  -3.1674  -3.1533  -3.1298  -3.1044  -3.0464  -3.0024
    -2.9857  -2.9509  -2.8923  -2.8480  -2.7974  -2.7676  -2.6694  -2.6295
    -2.5582  -2.5457  -2.4325  -2.3059  -0.2246  -0.1465  -0.1009  -0.0504
     0.4334   0.5537   0.6720   0.7067   0.7372   0.9229   1.0230   1.0943
     1.1185   1.1426   1.1750   1.2039   1.2252   1.2670   1.3466   1.4080
     1.4336   1.5374   1.5702   1.6466   1.6882   1.7009   1.7269   1.9859
     2.0993   2.1502   2.2129   2.2939   2.3724   2.4044   2.4447   2.5610
     2.6018   2.7230   2.7318   2.8160   2.8629   2.8888   3.0400   3.1558
     3.1965   3.2334   3.2830   3.3042   3.3323   3.3746   3.4459   3.5019
     3.5268   3.5414   3.5739   3.6988   3.7745   3.8245   3.8673   3.9203
     3.9630   4.0372   4.1050   4.1514   4.1732   4.2217   4.2603   4.2905
     4.3427   4.3825   4.4070   4.4354

          k =-0.4167 0.3368-0.2308 ( 96076 PWs)   bands (ev):

  -113.4891-113.4844-113.4802-113.2969 -70.9625 -70.9579 -70.9572 -70.9537
   -70.9520 -70.9509 -70.8125 -70.8085 -70.7935 -70.7863 -70.7829 -70.5147
   -25.1437 -22.8643 -20.4166 -18.4177 -17.9700 -17.9458 -17.8884 -17.8646
   -17.0637 -17.0593 -17.0567 -17.0506 -16.7882 -16.6392 -16.6317 -16.6245
   -16.6192 -16.5070 -16.4706 -16.3776 -16.3582 -16.3519 -16.3486 -16.3468
   -16.3452 -16.3410 -16.3396 -16.3355 -16.3321 -16.3056 -16.2982 -16.2453
   -16.1994 -15.5002 -15.4607 -15.4424 -15.2929 -15.2851 -15.2244 -15.2103
   -15.1561 -15.0373 -15.0028 -14.7946 -14.7469 -14.6069 -14.5453 -14.5095
   -14.4784 -14.4162 -14.3994 -13.8966 -12.2590 -12.0262 -11.9767 -11.9374
   -11.7075 -11.6181 -11.3231 -10.5447 -10.3156 -10.2431 -10.0213  -9.9752
    -9.9056  -9.3082  -9.2787  -8.8804  -8.8025  -8.7546  -8.5929  -8.5206
    -8.4770  -8.0932  -8.0770  -8.0614  -8.0423  -8.0162  -7.8688  -7.7290
    -7.7002  -7.6710  -7.6522  -7.6283  -7.5679  -7.4872  -7.4653  -7.2935
    -7.1772  -6.9813  -6.9309  -6.8956  -6.8720  -6.8232  -6.7556  -6.4103
    -6.3776  -6.2902  -6.2531  -6.2046  -5.9358  -5.6920  -5.6283  -5.5850
    -5.4960  -5.4741  -5.4467  -5.4156  -5.3428  -5.2882  -5.2399  -5.1771
    -5.1503  -5.1343  -5.1078  -5.0735  -5.0499  -5.0073  -4.9925  -4.9637
    -4.9099  -4.8311  -4.7639  -4.7356  -4.7018  -4.6187  -4.5862  -4.5172
    -4.4896  -4.3141  -4.2879  -4.2744  -4.2179  -4.0216  -3.9861  -3.9638
    -3.9450  -3.9115  -3.8692  -3.8105  -3.7802  -3.7032  -3.6526  -3.6104
    -3.5767  -3.5000  -3.3923  -3.3264  -3.3104  -3.2886  -3.2771  -3.2358
    -3.2268  -3.2004  -3.1809  -3.1363  -3.1241  -3.1065  -3.0551  -3.0014
    -2.9911  -2.9408  -2.8822  -2.8188  -2.8043  -2.7590  -2.6764  -2.6385
[...]
   -16.1922 -15.5233 -15.4608 -15.4334 -15.3943 -15.2899 -15.2186 -15.1162
   -15.1031 -15.0776 -14.9844 -14.8096 -14.7355 -14.6919 -14.5129 -14.4778
   -14.4557 -14.4421 -14.3776 -13.8967 -12.2597 -12.1254 -11.9758 -11.8111
   -11.7593 -11.6083 -11.3227 -10.5450 -10.3965 -10.1340 -10.0701  -9.9779
    -9.8972  -9.3082  -9.2787  -8.8812  -8.8431  -8.6962  -8.6434  -8.5229
    -8.4831  -8.0968  -8.0699  -8.0453  -8.0162  -7.9253  -7.8721  -7.8039
    -7.7469  -7.6678  -7.6287  -7.5789  -7.5031  -7.4738  -7.4459  -7.2896
    -7.1770  -7.0756  -6.9329  -6.8998  -6.8256  -6.7730  -6.7370  -6.4256
    -6.4037  -6.3441  -6.3067  -6.2062  -5.9355  -5.7087  -5.6137  -5.6029
    -5.5701  -5.4897  -5.4517  -5.3899  -5.3269  -5.2831  -5.2403  -5.1967
    -5.1417  -5.1334  -5.1191  -5.0907  -5.0407  -5.0090  -4.9727  -4.9562
    -4.9196  -4.7949  -4.7781  -4.7436  -4.6754  -4.6498  -4.5526  -4.5095
    -4.4714  -4.3146  -4.2967  -4.2917  -4.1879  -4.0482  -4.0138  -3.9730
    -3.9421  -3.9092  -3.8958  -3.8393  -3.8087  -3.6880  -3.6010  -3.5808
    -3.5646  -3.4600  -3.3922  -3.3485  -3.3382  -3.3046  -3.2774  -3.2423
    -3.2234  -3.1879  -3.1803  -3.1538  -3.1183  -3.0886  -3.0419  -3.0308
    -3.0062  -2.9558  -2.8995  -2.7951  -2.7790  -2.7182  -2.6759  -2.6219
    -2.5935  -2.4678  -2.4067  -2.3077  -0.2357  -0.2009  -0.0874  -0.0459
     0.4412   0.6185   0.6540   0.6872   0.7246   0.9747   1.0111   1.0482
     1.1156   1.1509   1.1814   1.1996   1.2110   1.2288   1.2795   1.3451
     1.4324   1.5613   1.6151   1.6564   1.6958   1.7091   1.7589   1.9650
     2.0832   2.1398   2.1676   2.3147   2.3782   2.4103   2.4739   2.5743
     2.6370   2.7196   2.7893   2.8350   2.8566   2.9286   3.0580   3.1476
     3.1819   3.2052   3.2280   3.3137   3.3440   3.3726   3.4337   3.4811
     3.5483   3.5957   3.6713   3.7297   3.7575   3.8044   3.8396   3.8921
     3.9340   3.9658   4.0781   4.1311   4.1690   4.1978   4.2189   4.2820
     4.3578   4.4036   4.4213   4.4957

          k =-0.2500-0.1443 0.2308 ( 96098 PWs)   bands (ev):

  -113.4891-113.4844-113.4802-113.2969 -70.9625 -70.9579 -70.9572 -70.9537
   -70.9520 -70.9509 -70.8125 -70.8085 -70.7935 -70.7863 -70.7829 -70.5147
   -25.1437 -22.8643 -20.4166 -18.4177 -18.0160 -17.9005 -17.8756 -17.8715
   -17.0694 -17.0654 -17.0603 -17.0391 -16.7883 -16.6374 -16.6176 -16.6109
   -16.6046 -16.5923 -16.4074 -16.3724 -16.3700 -16.3519 -16.3512 -16.3472
   -16.3460 -16.3434 -16.3375 -16.3327 -16.3304 -16.3138 -16.2666 -16.2323
   -16.2243 -15.5239 -15.5166 -15.4619 -15.4556 -15.2900 -15.1446 -15.1311
   -15.0764 -15.0181 -14.9602 -14.8076 -14.7933 -14.7401 -14.4825 -14.4744
   -14.4472 -14.4102 -14.3593 -13.8967 -12.2676 -12.2203 -11.9759 -11.7696
   -11.6709 -11.6663 -11.3238 -10.5479 -10.4698 -10.0939 -10.0046  -9.9810
    -9.9550  -9.3084  -9.2783  -8.8923  -8.8744  -8.6822  -8.5961  -8.5916
    -8.5151  -8.0642  -8.0434  -7.9910  -7.9758  -7.9563  -7.8749  -7.8012
    -7.7154  -7.6645  -7.6365  -7.4807  -7.4560  -7.4144  -7.3772  -7.2843
    -7.1785  -7.1746  -6.9301  -6.8319  -6.7906  -6.7794  -6.7374  -6.4880
    -6.4667  -6.4330  -6.3932  -6.2085  -5.9341  -5.7535  -5.6775  -5.6618
    -5.5685  -5.5046  -5.4805  -5.3947  -5.3253  -5.2682  -5.2348  -5.1854
    -5.1563  -5.1375  -5.1105  -5.0840  -5.0530  -5.0116  -4.9800  -4.9523
    -4.9158  -4.7797  -4.7560  -4.7267  -4.6810  -4.6234  -4.4996  -4.4775
    -4.4434  -4.3321  -4.3224  -4.2911  -4.1645  -4.0690  -4.0305  -3.9922
    -3.9722  -3.9535  -3.9189  -3.8593  -3.8453  -3.7271  -3.5798  -3.5720
    -3.5554  -3.3974  -3.3898  -3.3653  -3.3548  -3.3096  -3.2685  -3.2362
    -3.2214  -3.1923  -3.1584  -3.1473  -3.1151  -3.0940  -3.0566  -3.0165
    -2.9999  -2.9757  -2.9229  -2.7470  -2.7134  -2.6680  -2.6213  -2.5603
    -2.5385  -2.4908  -2.3948  -2.2868  -0.3466  -0.1566  -0.1338  -0.0404
     0.5361   0.5940   0.6165   0.7398   0.8284   0.8563   0.9569   0.9952
     1.0284   1.1195   1.1569   1.1804   1.2265   1.2365   1.2945   1.3289
     1.5293   1.5840   1.6140   1.6509   1.6816   1.7265   1.7889   1.9995
     2.0289   2.0594   2.0955   2.3342   2.4221   2.4588   2.4766   2.5944
     2.6798   2.7387   2.8149   2.8424   2.9238   2.9858   3.0653   3.1127
     3.1632   3.1956   3.2275   3.2740   3.2914   3.3425   3.4224   3.4906
     3.5616   3.6229   3.6531   3.7103   3.7509   3.7967   3.8453   3.8665
     3.9156   3.9761   4.1029   4.1404   4.1758   4.2293   4.2417   4.2846
     4.3023   4.3487   4.4148   4.4544

          k = 0.0000-0.2887-0.2308 ( 96098 PWs)   bands (ev):

  -113.4891-113.4844-113.4802-113.2969 -70.9625 -70.9579 -70.9572 -70.9537
   -70.9520 -70.9509 -70.8125 -70.8085 -70.7935 -70.7863 -70.7829 -70.5147
   -25.1437 -22.8643 -20.4166 -18.4177 -18.0161 -17.9005 -17.8764 -17.8708
   -17.0693 -17.0656 -17.0607 -17.0388 -16.7882 -16.6388 -16.6149 -16.6108
   -16.6051 -16.5924 -16.4063 -16.3747 -16.3697 -16.3529 -16.3508 -16.3481
   -16.3447 -16.3430 -16.3376 -16.3321 -16.3311 -16.3137 -16.2684 -16.2288
   -16.2263 -15.5271 -15.5117 -15.4611 -15.4563 -15.2897 -15.1503 -15.1280
   -15.0758 -15.0201 -14.9578 -14.8051 -14.7958 -14.7403 -14.4815 -14.4770
   -14.4458 -14.4091 -14.3601 -13.8968 -12.2660 -12.2215 -11.9758 -11.7678
   -11.6723 -11.6676 -11.3230 -10.5484 -10.4697 -10.0983  -9.9880  -9.9808
    -9.9669  -9.3083  -9.2786  -8.8910  -8.8761  -8.6832  -8.5991  -8.5900
    -8.5139  -8.0672  -8.0263  -8.0069  -7.9708  -7.9549  -7.8652  -7.8118
    -7.6985  -7.6754  -7.6440  -7.4847  -7.4549  -7.4142  -7.3779  -7.2841
    -7.1787  -7.1729  -6.9299  -6.8269  -6.7911  -6.7810  -6.7383  -6.4984
    -6.4549  -6.4413  -6.3906  -6.2105  -5.9347  -5.7510  -5.6695  -5.6605
    -5.5822  -5.4993  -5.4720  -5.3952  -5.3198  -5.2685  -5.2350  -5.1938
    -5.1581  -5.1432  -5.1128  -5.0949  -5.0495  -4.9981  -4.9722  -4.9517
    -4.9260  -4.7683  -4.7581  -4.7333  -4.6593  -4.6453  -4.5006  -4.4644
    -4.4528  -4.3276  -4.3191  -4.3010  -4.1667  -4.0609  -4.0328  -3.9900
    -3.9713  -3.9529  -3.9224  -3.8676  -3.8416  -3.7197  -3.5758  -3.5710
    -3.5580  -3.3954  -3.3915  -3.3643  -3.3560  -3.3122  -3.2642  -3.2400
    -3.2228  -3.1907  -3.1578  -3.1430  -3.1083  -3.0969  -3.0602  -3.0143
    -3.0029  -2.9843  -2.9275  -2.7515  -2.7181  -2.6543  -2.6277  -2.5643
    -2.5383  -2.4876  -2.3871  -2.2932  -0.3467  -0.1655  -0.1295  -0.0331
     0.5396   0.5796   0.6174   0.7398   0.8386   0.8490   0.9573   1.0078
     1.0303   1.1285   1.1487   1.1874   1.2064   1.2483   1.2897   1.3380
     1.5268   1.5689   1.6076   1.6507   1.6991   1.7175   1.7957   2.0087
     2.0262   2.0668   2.0910   2.3320   2.4071   2.4581   2.4797   2.5823
     2.6739   2.7750   2.8333   2.8506   2.9039   2.9711   3.0851   3.1005
     3.1655   3.2039   3.2166   3.2601   3.2873   3.3432   3.4126   3.4795
     3.5255   3.6008   3.6677   3.7199   3.7733   3.8007   3.8447   3.8858
     3.9251   4.0156   4.0769   4.1565   4.1918   4.2060   4.2469   4.2701
     4.2979   4.3507   4.4320   4.4862

          k =-0.4167 0.7217 0.2308 ( 96084 PWs)   bands (ev):

  -113.4891-113.4844-113.4802-113.2969 -70.9625 -70.9579 -70.9572 -70.9537
   -70.9520 -70.9509 -70.8125 -70.8085 -70.7935 -70.7863 -70.7829 -70.5147
   -25.1437 -22.8643 -20.4166 -18.4177 -17.9560 -17.9531 -17.9023 -17.8580
   -17.0630 -17.0595 -17.0564 -17.0506 -16.7882 -16.6434 -16.6309 -16.6275
   -16.6222 -16.4848 -16.4744 -16.3947 -16.3542 -16.3498 -16.3484 -16.3465
   -16.3454 -16.3423 -16.3400 -16.3356 -16.3306 -16.3034 -16.2982 -16.2662
   -16.1803 -15.5098 -15.4607 -15.4023 -15.3054 -15.2696 -15.2483 -15.2243
   -15.1234 -15.0417 -15.0314 -14.8064 -14.7156 -14.5909 -14.5804 -14.5239
   -14.4595 -14.4174 -14.4021 -13.8966 -12.2599 -11.9855 -11.9663 -11.9531
   -11.7646 -11.5895 -11.3241 -10.5428 -10.2723 -10.2633 -10.0756  -9.9796
    -9.8675  -9.3084  -9.2784  -8.8788  -8.7837  -8.7565  -8.6327  -8.5178
    -8.4283  -8.1171  -8.0886  -8.0700  -8.0518  -7.9757  -7.8696  -7.7809
    -7.6868  -7.6700  -7.6553  -7.6127  -7.5705  -7.5117  -7.4902  -7.2923
    -7.1778  -6.9411  -6.9278  -6.9159  -6.9045  -6.8238  -6.7462  -6.3945
    -6.3517  -6.2832  -6.2486  -6.1943  -5.9321  -5.6983  -5.6017  -5.5459
    -5.5107  -5.4773  -5.4546  -5.4333  -5.3386  -5.2929  -5.2497  -5.1722
    -5.1398  -5.1157  -5.1026  -5.0831  -5.0361  -5.0143  -4.9916  -4.9579
    -4.9035  -4.8467  -4.7785  -4.7313  -4.7113  -4.6443  -4.5703  -4.5426
    -4.5121  -4.3142  -4.2718  -4.2590  -4.2155  -4.0227  -3.9845  -3.9671
    -3.9375  -3.8977  -3.8607  -3.8048  -3.7759  -3.7010  -3.6604  -3.6236
    -3.5798  -3.5097  -3.3924  -3.3310  -3.3060  -3.2959  -3.2703  -3.2454
    -3.2273  -3.2062  -3.1613  -3.1407  -3.1193  -3.1074  -3.0460  -3.0048
    -2.9761  -2.9446  -2.8969  -2.8566  -2.8162  -2.7654  -2.6611  -2.6249
    -2.5872  -2.5713  -2.3996  -2.2857  -0.2447  -0.1204  -0.0961  -0.0602
     0.3873   0.6010   0.6634   0.6819   0.6950   0.9830   1.0160   1.0915
     1.1172   1.1614   1.1724   1.2078   1.2429   1.2559   1.3181   1.3628
     1.4397   1.5274   1.6131   1.6450   1.6720   1.7029   1.7417   1.9293
     2.1406   2.1999   2.2581   2.3032   2.4004   2.4175   2.4392   2.5560
     2.6206   2.6491   2.7325   2.7707   2.8036   2.8991   3.0933   3.1612
     3.1712   3.2748   3.2905   3.3324   3.3935   3.4265   3.4993   3.5063
     3.5240   3.5764   3.5945   3.6704   3.7183   3.7849   3.8810   3.9043
     3.9429   3.9646   4.0354   4.0436   4.1353   4.2095   4.2302   4.3165
     4.3529   4.3924   4.4105   4.4781

          k = 0.8333 0.0000-0.2308 ( 96084 PWs)   bands (ev):

  -113.4891-113.4844-113.4802-113.2969 -70.9625 -70.9579 -70.9572 -70.9537
   -70.9520 -70.9509 -70.8125 -70.8085 -70.7935 -70.7863 -70.7829 -70.5147
   -25.1437 -22.8643 -20.4166 -18.4177 -17.9586 -17.9504 -17.9024 -17.8579
   -17.0644 -17.0585 -17.0561 -17.0508 -16.7881 -16.6427 -16.6304 -16.6262
   -16.6239 -16.4807 -16.4777 -16.3958 -16.3543 -16.3501 -16.3490 -16.3477
   -16.3454 -16.3412 -16.3390 -16.3356 -16.3310 -16.3016 -16.3007 -16.2656
   -16.1803 -15.5092 -15.4607 -15.4009 -15.3009 -15.2623 -15.2551 -15.2305
   -15.1289 -15.0435 -15.0246 -14.8057 -14.7154 -14.5909 -14.5823 -14.5236
   -14.4599 -14.4117 -14.4066 -13.8967 -12.2592 -11.9844 -11.9635 -11.9563
   -11.7656 -11.5905 -11.3230 -10.5432 -10.2698 -10.2678 -10.0725  -9.9793
    -9.8685  -9.3082  -9.2787  -8.8788  -8.7820  -8.7603  -8.6330  -8.5181
    -8.4294  -8.1167  -8.0866  -8.0674  -8.0471  -7.9693  -7.8741  -7.7795
    -7.6822  -7.6765  -7.6612  -7.6090  -7.5767  -7.5124  -7.4912  -7.2920
    -7.1779  -6.9448  -6.9259  -6.9129  -6.9009  -6.8239  -6.7475  -6.3965
    -6.3536  -6.2804  -6.2522  -6.1984  -5.9353  -5.6866  -5.5982  -5.5435
    -5.4980  -5.4867  -5.4538  -5.4325  -5.3480  -5.2858  -5.2480  -5.1824
    -5.1366  -5.1294  -5.1174  -5.0754  -5.0446  -5.0057  -4.9735  -4.9556
    -4.9050  -4.8445  -4.7747  -4.7244  -4.7149  -4.6464  -4.5744  -4.5509
    -4.5077  -4.3095  -4.2749  -4.2634  -4.2134  -4.0249  -3.9774  -3.9717
    -3.9342  -3.8969  -3.8666  -3.8098  -3.7727  -3.6944  -3.6500  -3.6209
    -3.5761  -3.5155  -3.3922  -3.3302  -3.3166  -3.2922  -3.2721  -3.2471
    -3.2287  -3.1965  -3.1644  -3.1388  -3.1191  -3.1029  -3.0549  -3.0001
    -2.9802  -2.9455  -2.9057  -2.8565  -2.8197  -2.7717  -2.6634  -2.6334
    -2.5897  -2.5451  -2.3878  -2.3046  -0.2459  -0.1200  -0.0890  -0.0624
     0.3826   0.5937   0.6632   0.6798   0.6981   0.9893   1.0267   1.0938
     1.1255   1.1386   1.1829   1.2000   1.2506   1.2620   1.3325   1.3504
     1.4474   1.5152   1.5957   1.6607   1.6814   1.7047   1.7319   1.9327
     2.1385   2.2097   2.2540   2.3161   2.3799   2.4012   2.4244   2.5605
     2.5966   2.7080   2.7308   2.7849   2.8334   2.8799   3.0699   3.1641
     3.1905   3.2394   3.2996   3.3244   3.3634   3.3935   3.4895   3.5064
     3.5211   3.5482   3.5869   3.6848   3.7635   3.7965   3.8733   3.9143
     3.9484   3.9946   4.0490   4.0738   4.1556   4.1970   4.2404   4.3168
     4.3747   4.4090   4.4301   4.4548

          k =-0.4167-0.2406 0.2308 ( 96042 PWs)   bands (ev):

  -113.4891-113.4844-113.4802-113.2969 -70.9625 -70.9579 -70.9572 -70.9537
   -70.9520 -70.9509 -70.8125 -70.8085 -70.7935 -70.7863 -70.7829 -70.5147
   -25.1437 -22.8643 -20.4166 -18.4177 -17.9808 -17.9384 -17.8766 -17.8723
   -17.0636 -17.0604 -17.0569 -17.0498 -16.7883 -16.6354 -16.6312 -16.6275
   -16.6167 -16.5280 -16.4572 -16.3669 -16.3645 -16.3505 -16.3491 -16.3465
   -16.3456 -16.3428 -16.3393 -16.3347 -16.3309 -16.3086 -16.2938 -16.2257
   -16.2179 -15.4861 -15.4795 -15.4605 -15.3288 -15.2878 -15.1997 -15.1806
   -15.1427 -15.0435 -14.9995 -14.7877 -14.7739 -14.6306 -14.5132 -14.4944
   -14.4898 -14.4226 -14.3867 -13.8967 -12.2606 -12.0730 -11.9762 -11.9040
   -11.6608 -11.6555 -11.3243 -10.5431 -10.3580 -10.2188  -9.9938  -9.9594
    -9.9399  -9.3084  -9.2783  -8.8794  -8.8245  -8.7436  -8.5461  -8.5348
    -8.5120  -8.0883  -8.0776  -8.0454  -8.0370  -8.0237  -7.8718  -7.7278
    -7.7098  -7.6683  -7.6457  -7.5955  -7.5703  -7.4722  -7.4504  -7.2903
    -7.1774  -7.0298  -6.9304  -6.8632  -6.8337  -6.8096  -6.7984  -6.4173
    -6.3928  -6.3027  -6.2699  -6.1966  -5.9317  -5.7056  -5.6409  -5.5826
    -5.5319  -5.4837  -5.4681  -5.3990  -5.3223  -5.2853  -5.2508  -5.1726
    -5.1443  -5.1211  -5.1003  -5.0759  -5.0468  -5.0132  -5.0034  -4.9703
    -4.9094  -4.8359  -4.7645  -4.7223  -4.7033  -4.6190  -4.5572  -4.5201
    -4.4892  -4.3264  -4.2956  -4.2756  -4.2131  -4.0192  -3.9990  -3.9790
    -3.9429  -3.9096  -3.8756  -3.8180  -3.7915  -3.6994  -3.6448  -3.5930
    -3.5711  -3.4823  -3.3924  -3.3257  -3.3155  -3.2897  -3.2648  -3.2385
    -3.2200  -3.2030  -3.1833  -3.1518  -3.1296  -3.1003  -3.0364  -3.0107
    -3.0003  -2.9478  -2.8801  -2.8316  -2.7724  -2.7470  -2.6742  -2.6345
    -2.5497  -2.5109  -2.4900  -2.2835  -0.1910  -0.1795  -0.1366  -0.0347
     0.4981   0.5239   0.6589   0.7204   0.8182   0.8473   1.0159   1.0575
     1.1012   1.1446   1.1705   1.2049   1.2149   1.2581   1.3298   1.4287
     1.4886   1.5084   1.5509   1.6564   1.6850   1.7077   1.7378   2.0280
     2.0466   2.1160   2.1907   2.2803   2.3957   2.4323   2.4582   2.5907
     2.6189   2.6672   2.7387   2.7894   2.8485   2.9266   3.0725   3.1457
     3.1815   3.2272   3.2625   3.2943   3.3503   3.4017   3.4578   3.5137
     3.5392   3.5849   3.6189   3.6806   3.7422   3.7963   3.8286   3.9136
     3.9844   4.0103   4.0557   4.1170   4.1625   4.2055   4.2410   4.2999
     4.3475   4.3849   4.4163   4.4524

          k = 0.0000-0.4811-0.2308 ( 96042 PWs)   bands (ev):

  -113.4891-113.4844-113.4802-113.2969 -70.9625 -70.9579 -70.9572 -70.9537
   -70.9520 -70.9509 -70.8125 -70.8085 -70.7935 -70.7863 -70.7829 -70.5147
   -25.1437 -22.8643 -20.4166 -18.4177 -17.9812 -17.9381 -17.8771 -17.8717
   -17.0645 -17.0606 -17.0568 -17.0494 -16.7881 -16.6353 -16.6303 -16.6254
   -16.6186 -16.5275 -16.4571 -16.3682 -16.3648 -16.3515 -16.3493 -16.3481
   -16.3449 -16.3416 -16.3388 -16.3337 -16.3320 -16.3082 -16.2949 -16.2232
   -16.2199 -15.4894 -15.4741 -15.4597 -15.3252 -15.2882 -15.2031 -15.1779
   -15.1528 -15.0419 -14.9957 -14.7830 -14.7777 -14.6314 -14.5157 -14.4958
   -14.4872 -14.4200 -14.3882 -13.8967 -12.2595 -12.0727 -11.9760 -11.9036
   -11.6624 -11.6564 -11.3229 -10.5437 -10.3584 -10.2206  -9.9823  -9.9565
    -9.9516  -9.3082  -9.2787  -8.8793  -8.8249  -8.7456  -8.5460  -8.5398
    -8.5092  -8.0911  -8.0608  -8.0492  -8.0329  -8.0238  -7.8685  -7.7310
    -7.7024  -7.6745  -7.6538  -7.5927  -7.5786  -7.4740  -7.4507  -7.2900
    -7.1774  -7.0286  -6.9300  -6.8599  -6.8260  -6.8115  -6.8040  -6.4242
    -6.3913  -6.3030  -6.2701  -6.2026  -5.9353  -5.6955  -5.6250  -5.5800
    -5.5404  -5.4892  -5.4521  -5.4062  -5.3261  -5.2787  -5.2467  -5.1863
    -5.1433  -5.1359  -5.1234  -5.0694  -5.0425  -5.0141  -4.9812  -4.9657
    -4.9113  -4.8308  -4.7564  -4.7199  -4.7014  -4.6294  -4.5561  -4.5246
    -4.4931  -4.3172  -4.3003  -4.2827  -4.2117  -4.0145  -4.0022  -3.9699
    -3.9469  -3.9125  -3.8783  -3.8242  -3.7867  -3.6882  -3.6359  -3.5922
    -3.5667  -3.4856  -3.3920  -3.3299  -3.3169  -3.2948  -3.2622  -3.2498
    -3.2275  -3.1918  -3.1670  -3.1508  -3.1269  -3.1017  -3.0460  -3.0169
    -2.9986  -2.9439  -2.8978  -2.8338  -2.7719  -2.7565  -2.6782  -2.6359
    -2.5392  -2.5004  -2.4779  -2.3027  -0.1996  -0.1731  -0.1316  -0.0323
     0.4877   0.5216   0.6567   0.7231   0.8165   0.8416   1.0378   1.0691
     1.1113   1.1288   1.1699   1.1923   1.2278   1.2608   1.3453   1.4324
     1.4751   1.5040   1.5539   1.6487   1.6899   1.7039   1.7381   2.0266
     2.0547   2.1254   2.1872   2.2889   2.3689   2.4114   2.4518   2.5750
     2.6147   2.7254   2.7487   2.8308   2.8558   2.9189   3.0312   3.1443
     3.1913   3.2208   3.2573   3.2987   3.3148   3.3810   3.4106   3.4964
     3.5231   3.5494   3.6098   3.7183   3.7701   3.8244   3.8434   3.9347
     3.9776   4.0757   4.1014   4.1478   4.1845   4.2164   4.2566   4.2965
     4.3163   4.3694   4.4070   4.4308

     the Fermi energy is    -1.6668 ev

!    total energy              =   -3053.93685174 Ry
     estimated scf accuracy    <          2.7E-09 Ry
     smearing contrib. (-TS)   =      -0.00000000 Ry
     internal energy E=F+TS    =   -3053.93685174 Ry

     The total energy is F=E-TS. E is the sum of the following terms:
     one-electron contribution =  -17163.28987952 Ry
     hartree contribution      =    8650.45479940 Ry
     xc contribution           =    -617.54775533 Ry
     ewald contribution        =    6076.80700789 Ry
     Dispersion Correction     =      -0.36102418 Ry

     convergence has been achieved in  24 iterations

     Writing all to output data dir ./test.save/ :
     XML data file, charge density, pseudopotentials, collected wavefunctions
 
     init_run     :     20.80s CPU     22.36s WALL (       1 calls)
     electrons    :   1879.64s CPU   1901.94s WALL (       1 calls)

     Called by init_run:
     wfcinit      :     19.57s CPU     20.95s WALL (       1 calls)
     potinit      :      0.07s CPU      0.11s WALL (       1 calls)
     hinit0       :      0.09s CPU      0.11s WALL (       1 calls)

     Called by electrons:
     c_bands      :   1698.80s CPU   1711.61s WALL (      24 calls)
     sum_band     :    171.58s CPU    176.19s WALL (      24 calls)
     v_of_rho     :      0.97s CPU      1.16s WALL (      25 calls)
     newd         :      8.36s CPU     10.68s WALL (      25 calls)
     mix_rho      :      0.18s CPU      0.21s WALL (      24 calls)
     energy_londo :      0.01s CPU      0.01s WALL (       1 calls)

     Called by c_bands:
     init_us_2    :     31.03s CPU     31.20s WALL (    2646 calls)
     cegterg      :   1624.14s CPU   1636.43s WALL (    1296 calls)

     Called by *egterg:
     cdiaghg      :    227.69s CPU    229.82s WALL (   10269 calls)
     h_psi        :    765.80s CPU    772.18s WALL (   10323 calls)
     s_psi        :    167.32s CPU    168.01s WALL (   10323 calls)
     g_psi        :      3.72s CPU      3.75s WALL (    8973 calls)

     Called by h_psi:
     h_psi:calbec :    171.28s CPU    172.19s WALL (   10323 calls)
     vloc_psi     :    416.20s CPU    419.87s WALL (   10323 calls)
     add_vuspsi   :    171.54s CPU    173.21s WALL (   10323 calls)

     General routines
     calbec       :    225.52s CPU    226.69s WALL (   11619 calls)
     fft          :      1.36s CPU      1.52s WALL (     323 calls)
     ffts         :      0.04s CPU      0.04s WALL (      49 calls)
     fftw         :    401.54s CPU    404.98s WALL ( 2219260 calls)
     interpolate  :      0.05s CPU      0.07s WALL (      25 calls)
 
     Parallel routines
 
     PWSCF        :   1911.35s CPU   1965.37s WALL

 
   This run was terminated on:  13:38:45  12Feb2026            

=------------------------------------------------------------------------------=
   JOB DONE.
=------------------------------------------------------------------------------=
